SMILES,NAME,Water solubility,UNIT {Water solubility},Solubility_log(mol/L),UNIT {Water solubility}.1,CASRN,MolW(Da),NumHAcceptors,NumHDonors,LogP,Lipinski_rule,Solubility(mol/L)
Cc1cccc(C)c1NC(=O)c1cc(S(N)(=O)=O)c(Cl)cc1O,Xipamide,-3.79,log(mol/L),-3.79,log(mol/L),14293-44-8,354.81500000000005,4,3,2.5621400000000008,1,0.00016218100973589298
CC1Cc2ccccc2N1NC(=O)c1ccc(Cl)c(S(N)(=O)=O)c1,Indapamide,-3.79,log(mol/L),-3.79,log(mol/L),-,365.84200000000004,4,2,2.0834,1,0.00016218100973589298
CC(C=O)Cc1ccc(C(C)(C)C)cc1,FRA-048; p-t-bucinal,33.0,mg/L,-3.792,log(mol/L),80-54-6,204.313,1,0,3.361600000000002,1,0.0001614358556826487
O=C1CN=C(c2ccccc2)c2cc([N+](=O)[O-])ccc2N1,Nitrazepam,-3.796,log(mol/L),-3.796,log(mol/L),-,281.27099999999996,4,1,2.3842999999999996,1,0.00015995580286146696
CN1C(=O)CN=C(c2ccccc2)c2cc([N+](=O)[O-])ccc21,nimetazepam,-3.796,log(mol/L),-3.796,log(mol/L),-,295.29800000000006,4,0,2.4086000000000007,1,0.00015995580286146696
Cc1cc(S(=O)(=O)c2ccccc2)ccc1NS(=O)(=O)C(F)(F)F,perfluidone,-3.8,log(mol/L),-3.8,log(mol/L),37924-13-3,379.3810000000001,4,1,3.0893200000000007,1,0.00015848931924611142
O=C1CN=C(c2ccccc2)c2cc([N+](=O)[O-])ccc2N1,Nitrazepam,-3.8,log(mol/L),-3.8,log(mol/L),146-22-5,281.27099999999996,4,1,2.3842999999999996,1,0.00015848931924611142
CC(C)=CCN1CCC2(C)c3cc(O)ccc3CC1C2C,Pentazocine,-3.8,log(mol/L),-3.8,log(mol/L),-,285.43100000000004,2,1,3.8826000000000027,1,0.00015848931924611142
CC(=O)N1CCN(c2ccc(OCC3COC(Cn4ccnc4)(c4ccc(Cl)cc4Cl)O3)cc2)CC1,Ketoconazole,-3.8,log(mol/L),-3.8,log(mol/L),-,531.4399999999999,7,0,4.205800000000003,0,0.00015848931924611142
CCCCCCCCC(=O)OCC,ethyl nonanoate,-3.8,log(mol/L),-3.8,log(mol/L),123-29-5,186.295,2,0,3.3001000000000023,1,0.00015848931924611142
O=C1CN=C(c2ccccc2)c2cc([N+](=O)[O-])ccc2N1,Nitrazepam,-3.8,log(mol/L),-3.8,log(mol/L),-,281.27099999999996,4,1,2.3842999999999996,1,0.00015848931924611142
O=Cc1cc(Br)ccc1Br,"2,5-Dibromobenzaldehyde",41.8,mg/L,-3.8,log(mol/L),74553-29-0,263.916,1,0,3.0241000000000007,1,0.00015848931924611142
CN1C(=O)CN=C(c2ccccc2)c2cc([N+](=O)[O-])ccc21,nimetazepam,-3.8,log(mol/L),-3.8,log(mol/L),2011-67-8,295.29800000000006,4,0,2.4086000000000007,1,0.00015848931924611142
CC(C)C1=CC2=CCC3C(C)(C(=O)O)CCCC3(C)C2CC1,abietic acid,-3.8,log(mol/L),-3.8,log(mol/L),514-10-3,302.458,1,1,5.206200000000004,0,0.00015848931924611142
CCCCCCCCC(=O)OCC,ethyl nonanoate,-3.8,log(mol/L),-3.8,log(mol/L),-,186.295,2,0,3.3001000000000023,1,0.00015848931924611142
Cc1cc(S(=O)(=O)c2ccccc2)ccc1NS(=O)(=O)C(F)(F)F,perfluidone,-3.8,log(mol/L),-3.8,log(mol/L),-,379.3810000000001,4,1,3.0893200000000007,1,0.00015848931924611142
CN(C)C(=O)Nc1ccc(Cl)c(Cl)c1,diuron,-3.8,log(mol/L),-3.8,log(mol/L),-,233.09799999999998,1,1,3.0869000000000018,1,0.00015848931924611142
CN(C)C(=O)Nc1ccc(Cl)c(Cl)c1,diuron,-3.8,log(mol/L),-3.8,log(mol/L),330-54-1,233.09799999999998,1,1,3.0869000000000018,1,0.00015848931924611142
CCCCC1C(=O)N(c2ccccc2)N(c2ccccc2)C1=O,Phenylbutazone,-3.81,log(mol/L),-3.81,log(mol/L),50-33-9,308.3810000000001,2,0,3.7878000000000025,1,0.0001548816618912481
CCCCCCBr,1-bromohexane,-3.81,log(mol/L),-3.81,log(mol/L),111-25-1,165.074,0,0,2.9616000000000016,1,0.0001548816618912481
CCOc1ccc2nc(S(N)(=O)=O)sc2c1,Ethoxzolamide,-3.81,log(mol/L),-3.81,log(mol/L),-,258.32399999999996,5,1,1.3424,1,0.0001548816618912481
CCCCC1C(=O)N(c2ccccc2)N(c2ccccc2)C1=O,Phenylbutazone,-3.81,log(mol/L),-3.81,log(mol/L),-,308.3810000000001,2,0,3.7878000000000025,1,0.0001548816618912481
CCOc1ccc2nc(S(N)(=O)=O)sc2c1,ethoxyzolamide,-3.81,log(mol/L),-3.81,log(mol/L),452-35-7,258.32399999999996,5,1,1.3424,1,0.0001548816618912481
CCCCCCBr,1-bromohexane,-3.81,log(mol/L),-3.81,log(mol/L),-,165.074,0,0,2.9616000000000016,1,0.0001548816618912481
CCOc1ccc2nc(S(N)(=O)=O)sc2c1,ethoxyzolamide,-3.81,log(mol/L),-3.81,log(mol/L),-,258.32399999999996,5,1,1.3424,1,0.0001548816618912481
CC(=O)C1(O)CCC2C3CCC4=CC(=O)CCC4(C)C3CCC21C,Hydroxyprogesterone-17a,-3.817,log(mol/L),-3.817,log(mol/L),-,330.4680000000001,3,1,3.8384000000000027,1,0.00015240527537972907
CC(CCC(=O)O)C1CCC2C3CC(O)C4CC(O)CCC4(C)C3CCC12C,hyodeoxycholic acid,-3.82,log(mol/L),-3.82,log(mol/L),83-49-8,392.5800000000002,3,3,4.477900000000004,1,0.00015135612484362088
CC=CCCCC,trans-2-heptene,-3.82,log(mol/L),-3.82,log(mol/L),14686-13-6,98.18900000000001,0,0,2.752700000000001,1,0.00015135612484362088
CC=CCCCC,trans-2-heptene,-3.82,log(mol/L),-3.82,log(mol/L),-,98.18900000000001,0,0,2.752700000000001,1,0.00015135612484362088
CC(Cc1ccccc1)NCCC(c1ccccc1)c1ccccc1,Prenylamine,-3.82,log(mol/L),-3.82,log(mol/L),-,329.487,1,1,5.4294000000000056,0,0.00015135612484362088
Cc1ccn2nc(S(=O)(=O)Nc3c(F)cccc3F)nc2n1,-,1.690196,log(mg/L),-3.822,log(mol/L),98967-40-9,325.30000000000007,6,1,1.5117199999999997,1,0.0001506607066186742
CC(C)n1c(C=CC(O)CC(O)CC(=O)O)c(-c2ccc(F)cc2)c2ccccc21,Fluvastatin,-3.83,log(mol/L),-3.83,log(mol/L),-,411.473,4,3,4.628100000000003,1,0.00014791083881682073
CCCCOc1ccc(C(=O)OCCN(CC)CC)cc1,-,-3.84,log(mol/L),-3.84,log(mol/L),3772-43-8,293.4069999999999,4,0,3.3641000000000023,1,0.0001445439770745928
CCCCOc1ccc(C(=O)OCCN(CC)CC)cc1,stadacaine,-3.84,log(mol/L),-3.84,log(mol/L),3772-43-8,293.4069999999999,4,0,3.3641000000000023,1,0.0001445439770745928
CCCCCC,n-hexane,-3.84,log(mol/L),-3.84,log(mol/L),-,86.178,0,0,2.5866000000000007,1,0.0001445439770745928
CCCCOc1ccc(C(=O)OCCN(CC)CC)cc1.Cl,stadacaine,-3.84,log(mol/L),-3.84,log(mol/L),-,329.8679999999999,4,0,3.785900000000004,1,0.0001445439770745928
CCCCCC,Hexane,-3.84,log(mol/L),-3.84,log(mol/L),-,86.178,0,0,2.5866000000000007,1,0.0001445439770745928
CCCCCC,n-hexane,-3.84,log(mol/L),-3.84,log(mol/L),110-54-3,86.178,0,0,2.5866000000000007,1,0.0001445439770745928
CCCCOc1ccc(C(=O)OCC)c(N(CC)CC)c1,stadacaine,-3.84,log(mol/L),-3.84,log(mol/L),-,293.407,4,0,3.8884000000000034,1,0.0001445439770745928
CC12CCC(=O)C=C1CCC1C2C(O)CC2(C=O)C(C(=O)CO)CCC12,aldosterone,-3.85,log(mol/L),-3.85,log(mol/L),52-39-1,360.45000000000016,5,2,1.8456999999999997,1,0.0001412537544622754
CCNc1nc(Cl)nc(NC(C)C)n1,atrazine,-3.85,log(mol/L),-3.85,log(mol/L),-,215.68800000000002,5,2,1.7770999999999997,1,0.0001412537544622754
CC12CCC(=O)C=C1CCC1C2C(O)CC2(C=O)C(C(=O)CO)CCC12,aldosterone,-3.85,log(mol/L),-3.85,log(mol/L),-,360.45000000000016,5,2,1.8456999999999997,1,0.0001412537544622754
CC1CCCCC1,Methylcyclohexane,-3.85,log(mol/L),-3.85,log(mol/L),-,98.18900000000001,0,0,2.5866000000000007,1,0.0001412537544622754
CCNc1nc(Cl)nc(NC(C)C)n1,atrazine,-3.85,log(mol/L),-3.85,log(mol/L),1912-24-9,215.68800000000002,5,2,1.7770999999999997,1,0.0001412537544622754
CC1CCCCC1,Methylcyclohexane,-3.85,log(mol/L),-3.85,log(mol/L),108-87-2,98.18900000000001,0,0,2.5866000000000007,1,0.0001412537544622754
O=C(O)Cc1ccccc1Oc1ccc(Cl)cc1Cl,Fenclofenac,-3.85,log(mol/L),-3.85,log(mol/L),-,297.13699999999994,2,1,4.4128000000000025,1,0.0001412537544622754
O=C(O)C=C(F)C(F)(F)C(F)(F)C(F)(F)C(F)(F)C(F)(F)C(F)(F)C(F)(F)F,-,1.81,log(mg/L),-3.851,log(mol/L),70887-84-2,458.092,1,1,5.2985000000000015,0,0.00014092887984218749
O=C1NC(=O)C(c2ccccc2)(c2ccccc2)N1,diphenylhydantoin,139.293,?M/L,-3.856,log(mol/L),-,252.27300000000002,2,2,1.7696,1,0.00013931568029453036
COc1ccc(Cc2nccc3cc(OC)c(OC)cc23)cc1OC,Papaverine,135.773,?M/L,-3.867,log(mol/L),-,339.3910000000001,5,0,3.860000000000003,1,0.0001358313446587154
Clc1ccc(C2(Cn3cncn3)CC(Br)CO2)c(Cl)c1,Bromuconazole,50.0,mg/L,-3.877,log(mol/L),116255-48-2,377.0690000000001,4,0,3.664200000000003,1,0.00013273944577297403
Clc1ccc(C2(Cn3cncn3)CC(Br)CO2)c(Cl)c1,-,1.69897,log(mg/L),-3.877,log(mol/L),116255-48-2,377.0690000000001,4,0,3.664200000000003,1,0.00013273944577297403
C[Si](Cn1cncn1)(c1ccc(F)cc1)c1ccc(F)cc1,Flusilazole,41.9,mg/L,-3.877,log(mol/L),85509-19-9,315.399,3,0,1.9885,1,0.00013273944577297403
COC(=O)Nc1nc2ccc(C(=O)c3ccccc3)cc2[nH]1,mebendazole,-3.88,log(mol/L),-3.88,log(mol/L),-,295.298,4,2,2.972200000000001,1,0.00013182567385564074
COC(=O)Nc1nc2cc(C(=O)c3ccccc3)ccc2[nH]1,mebendazole,-3.88,log(mol/L),-3.88,log(mol/L),31431-39-7,295.298,4,2,2.972200000000001,1,0.00013182567385564074
CN1C(C(=O)Nc2ccccn2)=C(O)c2sccc2S1(=O)=O,Tenoxicam,-3.88,log(mol/L),-3.88,log(mol/L),-,337.38200000000006,6,2,1.6425,1,0.00013182567385564074
COC(=O)Nc1nc2ccc(C(=O)c3ccccc3)cc2[nH]1,mebendazole,-3.88,log(mol/L),-3.88,log(mol/L),31431-39-7,295.298,4,2,2.972200000000001,1,0.00013182567385564074
CC(=O)CC(c1ccccc1)c1c(O)c2ccccc2oc1=O,Warfarin,-3.89,log(mol/L),-3.89,log(mol/L),-,308.3330000000001,4,1,3.609600000000003,1,0.00012882495516931337
CCC(C)c1ccccc1,2-butylbenzene,-3.89,log(mol/L),-3.89,log(mol/L),-,134.22199999999998,0,0,3.2001000000000017,1,0.00012882495516931337
COc1ccc2cc(C(C)C(=O)O)ccc2c1,Naproxen,-3.89,log(mol/L),-3.89,log(mol/L),-,230.26299999999998,2,1,3.036500000000001,1,0.00012882495516931337
CC(=O)CC(c1ccccc1)c1c(O)c2ccccc2oc1=O,Warfarin,-3.89,log(mol/L),-3.89,log(mol/L),81-81-2,308.3330000000001,4,1,3.609600000000003,1,0.00012882495516931337
CCC(C)c1ccccc1,2-butylbenzene,-3.89,log(mol/L),-3.89,log(mol/L),135-98-8,134.22199999999998,0,0,3.2001000000000017,1,0.00012882495516931337
CCCCOc1ccc(C(=O)OCCN(CC)CC)cc1,Butoxycaine,-3.89,log(mol/L),-3.89,log(mol/L),-,293.4069999999999,4,0,3.3641000000000023,1,0.00012882495516931337
CC(=O)CC(c1ccccc1)c1c(O)c2ccccc2oc1=O,Warfarin,-3.893,log(mol/L),-3.893,log(mol/L),-,308.3330000000001,4,1,3.609600000000003,1,0.00012793813041575252
CCCCOC(=O)CCCCCCCCC(=O)OCCCC,dibutyl sebacate,-3.896,log(mol/L),-3.896,log(mol/L),-,314.46600000000007,4,0,4.7938000000000045,1,0.00012705741052085418
Brc1cccc(Br)c1Br,TRIBROMOBENZENE,40.0,mg/L,-3.896,log(mol/L),28779-08-0,314.80199999999996,0,0,3.9741,1,0.00012705741052085418
CN(C)C(=S)SSC(=S)N(C)C,thiram,-3.9,log(mol/L),-3.9,log(mol/L),137-26-8,240.44400000000002,4,0,2.0608,1,0.00012589254117941674
C#CC(C)N(C)C(=O)Nc1ccc(Cl)cc1,buturon,-3.9,log(mol/L),-3.9,log(mol/L),3766-60-7,236.70200000000003,1,1,2.825400000000001,1,0.00012589254117941674
C#CC(C)N(C)C(=O)Nc1ccc(Cl)cc1,buturon,-3.9,log(mol/L),-3.9,log(mol/L),-,236.70200000000003,1,1,2.825400000000001,1,0.00012589254117941674
CN(C)C(=S)SSC(=S)N(C)C,thiram,-3.9,log(mol/L),-3.9,log(mol/L),-,240.44400000000002,4,0,2.0608,1,0.00012589254117941674
O=C1NC(=O)C(c2ccccc2)(c2ccccc2)N1,Phenytoin,-3.9,log(mol/L),-3.9,log(mol/L),57-41-0,252.27300000000002,2,2,1.7696,1,0.00012589254117941674
CCOP(=S)(OCC)Oc1ncn(-c2ccccc2)n1,Triazophos,39.0,mg/L,-3.905,log(mol/L),24017-47-8,313.319,7,0,2.943600000000001,1,0.00012445146117713856
CCOP(=S)(OCC)Oc1ncn(-c2ccccc2)n1,-,1.591065,log(mg/L),-3.905,log(mol/L),24017-47-8,313.319,7,0,2.943600000000001,1,0.00012445146117713856
CON(C)C(=O)Nc1ccc(Br)c(Cl)c1,Chlorbromuron,-3.92,log(mol/L),-3.92,log(mol/L),-,293.548,2,1,3.127600000000002,1,0.00012022644346174131
CON(C)C(=O)Nc1ccc(Br)c(Cl)c1,Chlorbromuron,35.0,mg/L,-3.924,log(mol/L),13360-45-7,293.548,2,1,3.127600000000002,1,0.0001191242008027375
CON(C)C(=O)Nc1ccc(Br)c(Cl)c1,Chlorbromuron,-3.924,log(mol/L),-3.924,log(mol/L),-,293.548,2,1,3.127600000000002,1,0.0001191242008027375
CN(C)C(=O)SCCCCOc1ccccc1,Fenothiocarb,-3.927,log(mol/L),-3.927,log(mol/L),-,253.367,3,0,3.2604000000000024,1,0.00011830415557251647
FC1(F)C(F)(F)C(F)(F)C1(F)F,PERFLUOROCYCLOBUTANE,23.6,mg/L,-3.928,log(mol/L),115-25-3,200.02799999999996,0,0,2.5412,1,0.00011803206356517298
Cc1ccc2c(c1)C(=O)N(C)c1cc(N)ccc1O2,RTI 11,-3.928,log(mol/L),-3.928,log(mol/L),-,254.289,3,1,2.9595200000000004,1,0.00011803206356517298
Clc1cccc2ccccc12,1-chloronaphthalene,-3.93,log(mol/L),-3.93,log(mol/L),90-13-1,162.61899999999997,0,0,3.4932000000000016,1,0.0001174897554939529
O=c1[nH]c(=O)c2[nH]c(=O)[nH]c2[nH]1,Uric acid,-3.93,log(mol/L),-3.93,log(mol/L),-,168.112,3,4,-1.7672000000000003,1,0.0001174897554939529
O=C1NC(=O)C2C3C(C(O)(c4ccccc4)c4ccccn4)=CC(C3=C(c3ccccc3)c3ccccn3)C12,Norbormide,-3.93,log(mol/L),-3.93,log(mol/L),-,511.5810000000002,5,2,4.289400000000003,0,0.0001174897554939529
CC(C)NCC(O)COc1cccc2[nH]ccc12,Pindolol,-3.93,log(mol/L),-3.93,log(mol/L),-,248.32600000000002,3,3,1.9055999999999995,1,0.0001174897554939529
Clc1cccc2ccccc12,1-chloronaphthalene,-3.93,log(mol/L),-3.93,log(mol/L),-,162.61899999999997,0,0,3.4932000000000016,1,0.0001174897554939529
Clc1cccc2ccccc12,1-Chloronapthalene,-3.93,log(mol/L),-3.93,log(mol/L),-,162.61899999999997,0,0,3.4932000000000016,1,0.0001174897554939529
O=C1NC(=O)C2C3C(C(O)(c4ccccc4)c4ccccn4)=CC(C3=C(c3ccccc3)c3ccccn3)C12,Norbormide,-3.931,log(mol/L),-3.931,log(mol/L),-,511.5810000000002,5,2,4.289400000000003,0,0.00011721953655481303
FC1(F)C(F)(F)C(F)(F)C1(F)F,-,1.37,log(mg/L),-3.931,log(mol/L),115-25-3,200.02799999999996,0,0,2.5412,1,0.00011721953655481303
CC(C)(C)C(O)(CCc1ccc(Cl)cc1)Cn1cncn1,Tebuconazole,36.0,mg/L,-3.932,log(mol/L),107534-96-3,307.825,4,1,3.3415000000000017,1,0.00011694993910198711
CC(C)(C)C(O)(CCc1ccc(Cl)cc1)Cn1cncn1,-,1.556303,log(mg/L),-3.932,log(mol/L),107534-96-3,307.825,4,1,3.3415000000000017,1,0.00011694993910198711
CN1c2ccccc2Sc2ccc(CC(=O)O)cc21,metiazinic acid,-3.94,log(mol/L),-3.94,log(mol/L),-,271.34099999999995,3,1,3.5462000000000016,1,0.0001148153621496883
CN1c2ccccc2Sc2ccc(CC(=O)O)cc21,metiazinic acid,-3.94,log(mol/L),-3.94,log(mol/L),13993-65-2,271.34099999999995,3,1,3.5462000000000016,1,0.0001148153621496883
CC(C)(C)NC(=O)C1CN(Cc2cccnc2)CCN1CC(O)CC(Cc1ccccc1)C(=O)NC1c2ccccc2CC1O,Indinavir,-3.94,log(mol/L),-3.94,log(mol/L),-,613.8030000000003,7,4,2.8669000000000016,0,0.0001148153621496883
CC(CCC(=O)O)C1CCC2C3CCC4CC(O)CCC4(C)C3CC(O)C12C,deoxycholic acid,-3.95,log(mol/L),-3.95,log(mol/L),83-44-3,392.58000000000015,3,3,4.477900000000005,1,0.0001122018454301963
O=C1Nc2ccc(Cl)cc2C(c2ccccc2)=NC1O,Oxazepam,-3.95,log(mol/L),-3.95,log(mol/L),-,286.718,3,2,2.4479,1,0.0001122018454301963
Oc1ccc(Cl)cc1Cc1cc(Cl)ccc1O,dichlorphen,-3.95,log(mol/L),-3.95,log(mol/L),97-23-4,269.127,2,2,3.9954000000000023,1,0.0001122018454301963
CN(C)CCC=C1c2ccccc2COc2ccccc21,Doxepin,-3.95,log(mol/L),-3.95,log(mol/L),-,279.383,2,0,3.9624000000000033,1,0.0001122018454301963
CCCCCCOC(=O)c1ccc(N)cc1,hexyl-4-aminobenzoate,-3.95,log(mol/L),-3.95,log(mol/L),13476-55-6,221.3,3,1,3.0059000000000005,1,0.0001122018454301963
Brc1ccc(Br)cc1,DIBROMOBENZENE,26.4,mg/L,-3.951,log(mol/L),26249-12-7,235.90599999999998,0,0,3.2116000000000007,1,0.00011194378834671513
O=C1Nc2ccc(Cl)cc2C(c2ccccc2)=NC1O,Oxazepam,-3.952,log(mol/L),-3.952,log(mol/L),-,286.718,3,2,2.4479,1,0.00011168632477805612
CC(C)(C)C(O)C(Oc1ccc(Cl)cc1)n1cncn1,-,1.518514,log(mg/L),-3.952,log(mol/L),82200-72-4,295.77,5,1,2.916100000000001,1,0.00011168632477805612
Oc1ccc(Cl)cc1Cc1cc(Cl)ccc1O,Dichlorophen,-3.953,log(mol/L),-3.953,log(mol/L),-,269.127,2,2,3.9954000000000023,1,0.00011142945335917303
CC12CCC3c4ccc(O)cc4CCC3C1CCC2=O,estrone,-3.955,log(mol/L),-3.955,log(mol/L),-,270.37199999999996,2,1,3.817400000000002,1,0.00011091748152624009
c1ccc(Oc2ccccc2)cc1,diphenyl ether,-3.96,log(mol/L),-3.96,log(mol/L),101-84-8,170.21099999999998,1,0,3.478900000000001,1,0.00010964781961431851
C1=Cc2cccc3cccc1c23,acenaphthylene,-3.96,log(mol/L),-3.96,log(mol/L),208-96-8,152.19599999999994,0,0,3.3236000000000017,1,0.00010964781961431851
C1=Cc2cccc3cccc1c23,Acenapthylene,-3.96,log(mol/L),-3.96,log(mol/L),-,152.19599999999994,0,0,3.3236000000000017,1,0.00010964781961431851
CC12CCC3c4ccc(O)cc4CCC3C1CCC2=O,estrone,-3.96,log(mol/L),-3.96,log(mol/L),53-16-7,270.37199999999996,2,1,3.817400000000002,1,0.00010964781961431851
c1ccc(Oc2ccccc2)cc1,diphenyl ether,-3.96,log(mol/L),-3.96,log(mol/L),-,170.21099999999998,1,0,3.478900000000001,1,0.00010964781961431851
C1=Cc2cccc3cccc1c23,acenaphthylene,-3.96,log(mol/L),-3.96,log(mol/L),-,152.19599999999994,0,0,3.3236000000000017,1,0.00010964781961431851
CC12CCC3c4ccc(O)cc4CCC3C1CCC2=O,estrone,-3.96,log(mol/L),-3.96,log(mol/L),-,270.37199999999996,2,1,3.817400000000002,1,0.00010964781961431851
Cc1ccnc2c1ccc1c(C)ccnc12,"4,7-dimethyl-1,10-phenanthroline",-3.97,log(mol/L),-3.97,log(mol/L),491-01-0,208.26399999999998,2,0,3.399840000000002,1,0.00010715193052376059
COc1ccc(CCN(C)CCCC(C#N)(c2ccc(OC)c(OC)c2)C(C)C)cc1OC,Verapamil,105.743,?M/L,-3.976,log(mol/L),-,454.6110000000002,6,0,5.093080000000005,0,0.00010568175092136585
N#Cc1ccc2c(c1)N(CCCN1CCC(O)CC1)c1ccccc1S2,Pericyazine,-3.98,log(mol/L),-3.98,log(mol/L),-,365.502,5,1,4.007780000000003,1,0.00010471285480508996
N#Cc1ccc2c(c1)N(CCCN1CCC(O)CC1)c1ccccc1S2,Pericyazine,-3.98,log(mol/L),-3.98,log(mol/L),2622-26-6,365.502,5,1,4.007780000000003,1,0.00010471285480508996
CCCCCCCCl,1-chloroheptane,-3.99,log(mol/L),-3.99,log(mol/L),629-06-1,134.65,0,0,3.1956000000000016,1,0.00010232929922807536
CC12CCC(=O)C=C1CCC1C2CCC2(C)C1CCC2(C)O,17-methyltestosterone,-3.99,log(mol/L),-3.99,log(mol/L),58-18-4,302.458,2,1,4.269300000000005,1,0.00010232929922807536
O=C1NC(=O)C(c2ccccc2)(c2ccccc2)N1,Phenytoin,-3.99,log(mol/L),-3.99,log(mol/L),-,252.27300000000002,2,2,1.7696,1,0.00010232929922807536
CC(C)Cc1ccc(C(C)C(=O)O)cc1,Ibuprofen,-3.99,log(mol/L),-3.99,log(mol/L),-,206.28499999999997,1,1,3.073200000000001,1,0.00010232929922807536
CC(C)Cc1ccc(C(C)C(=O)O)cc1,Ibuprofen,-3.99,log(mol/L),-3.99,log(mol/L),15687-27-1,206.28499999999997,1,1,3.073200000000001,1,0.00010232929922807536
O=C1NC(=O)C(c2ccccc2)(c2ccccc2)N1,Phenytoin,-3.99,log(mol/L),-3.99,log(mol/L),57-41-0,252.27300000000002,2,2,1.7696,1,0.00010232929922807536
CC12CCC(=O)C=C1CCC1C2CCC2(C)C1CCC2(C)O,17a-Methyltestosterone,-3.999,log(mol/L),-3.999,log(mol/L),-,302.458,2,1,4.269300000000005,1,0.00010023052380778994
Cc1cc(C)c(C)c(C)c1C,pentamethylbenzene,-4.0,log(mol/L),-4.0,log(mol/L),700-12-9,148.249,0,0,3.2287000000000017,1,0.0001
CC(=O)OCC(=O)C1(O)CCC2C3CCC4=CC(=O)CCC4(C)C3C(=O)CC21C,cortisone acetate,-4.0,log(mol/L),-4.0,log(mol/L),50-04-4,402.48700000000025,6,1,2.560600000000001,1,0.0001
C=C(C)C1CC=C(C)CC1,d-limonene,-4.0,log(mol/L),-4.0,log(mol/L),-,136.23799999999997,0,0,3.308900000000002,1,0.0001
CCNc1nc(NC(C)(C)C)nc(SC)n1,terbutryne,-4.0,log(mol/L),-4.0,log(mol/L),886-50-0,241.364,6,2,2.2356999999999996,1,0.0001
Cc1cc(C)c(C)c(C)c1C,pentamethylbenzene,-4.0,log(mol/L),-4.0,log(mol/L),-,148.249,0,0,3.2287000000000017,1,0.0001
C=C(C)C1CC=C(C)CC1,d-limonene,-4.0,log(mol/L),-4.0,log(mol/L),5989-27-5,136.23799999999997,0,0,3.308900000000002,1,0.0001
CC(C)CN(CC(O)C(Cc1ccccc1)NC(=O)OC1CCOC1)S(=O)(=O)c1ccc(N)cc1,Amprenavir,-4.0,log(mol/L),-4.0,log(mol/L),-,505.63700000000034,7,3,2.4028,0,0.0001
CCNc1nc(NC(C)(C)C)nc(SC)n1,Terbutryn,-4.0,log(mol/L),-4.0,log(mol/L),-,241.364,6,2,2.2356999999999996,1,0.0001
Clc1cccc(Cl)c1Cl,"1,2,3-trichlorobenzene",-4.0,log(mol/L),-4.0,log(mol/L),87-61-6,181.44899999999998,0,0,3.6468000000000007,1,0.0001
Clc1cccc(Cl)c1Cl,"1,2,3-trichlorobenzene",-4.0,log(mol/L),-4.0,log(mol/L),-,181.44899999999998,0,0,3.6468000000000007,1,0.0001
CCCCCCCCl,1-chloroheptane,-4.0,log(mol/L),-4.0,log(mol/L),-,134.65,0,0,3.1956000000000016,1,0.0001
CNCCC=C1c2ccccc2CCc2ccccc21,nortriptiline,96.1989,?M/L,-4.017,log(mol/L),-,263.38399999999996,1,1,3.826400000000003,1,9.616122783836638e-05
CC12CCC(=O)C=C1CCC1C2CCC2(C)C(O)CCC12,Testosterone,-4.02,log(mol/L),-4.02,log(mol/L),-,288.43100000000004,2,1,3.8792000000000026,1,9.549925860214369e-05
COc1c(O)c(Cl)c(Cl)c(Cl)c1Cl,tetrachloroguaiacol,-4.02,log(mol/L),-4.02,log(mol/L),-,261.919,2,1,4.014400000000001,1,9.549925860214369e-05
COc1c(O)c(Cl)c(Cl)c(Cl)c1Cl,tetrachloroguaiacol,-4.02,log(mol/L),-4.02,log(mol/L),2539-17-5,261.919,2,1,4.014400000000001,1,9.549925860214369e-05
Clc1ccc(I)cc1,p-Chloroiodobenzene,-4.03,log(mol/L),-4.03,log(mol/L),-,238.45499999999998,0,0,2.944600000000001,1,9.332543007969905e-05
CNc1cnn(-c2cccc(C(F)(F)F)c2)c(=O)c1Cl,norflurazon,-4.04,log(mol/L),-4.04,log(mol/L),27314-13-2,303.67100000000005,4,1,2.9464000000000006,1,9.120108393559096e-05
COP(=S)(OC)Oc1ccc([N+](=O)[O-])c(C)c1,fenitrothion,-4.04,log(mol/L),-4.04,log(mol/L),-,277.238,6,0,2.7993200000000007,1,9.120108393559096e-05
COP(=S)(OC)Oc1ccc([N+](=O)[O-])c(C)c1,fenitrothion,-4.04,log(mol/L),-4.04,log(mol/L),122-14-5,277.238,6,0,2.7993200000000007,1,9.120108393559096e-05