SMILES,NAME,Water solubility,UNIT {Water solubility},Solubility_log(mol/L),UNIT {Water solubility}.1,CASRN,MolW(Da),NumHAcceptors,NumHDonors,LogP,Lipinski_rule,Solubility(mol/L)
O=[N+]([O-])c1cccc(Br)c1,3-Bromo-1-nitrobenzene,10000.0,mg/L,-1.305,log(mol/L),585-79-5,202.00699999999998,2,0,2.3573000000000004,1,0.04954501908047903
Cc1cccc(C)c1O,"2,6-xylenol",-1.31,log(mol/L),-1.31,log(mol/L),576-26-1,122.16699999999999,1,1,2.00904,1,0.04897788193684462
CC(F)F,"1,1-Difluoroethane",3200.0,mg/L,-1.315,log(mol/L),75-37-6,66.05,0,0,1.2714,1,0.04841723675840994
ClCCBr,1-chloro-2-bromoethane,-1.32,log(mol/L),-1.32,log(mol/L),-,143.411,0,0,1.6200999999999999,1,0.047863009232263824
ClCCBr,1-chloro-2-bromoethane,-1.32,log(mol/L),-1.32,log(mol/L),107-04-0,143.411,0,0,1.6200999999999999,1,0.047863009232263824
BrC=CBr,"1,2-dibromoethylene",-1.32,log(mol/L),-1.32,log(mol/L),-,185.84599999999998,0,0,2.2474,1,0.047863009232263824
BrC=CBr,"1,2-dibromoethylene",-1.32,log(mol/L),-1.32,log(mol/L),590-12-5,185.84599999999998,0,0,2.2474,1,0.047863009232263824
CC(=O)Nc1ccccc1,acetanilide,-1.33,log(mol/L),-1.33,log(mol/L),103-84-4,135.16599999999997,1,1,1.6449999999999998,1,0.046773514128719815
CC(=O)Nc1ccccc1,acetanilide,-1.33,log(mol/L),-1.33,log(mol/L),-,135.16599999999997,1,1,1.6449999999999998,1,0.046773514128719815
CC(=O)CCC(C)C,5-methyl-2-hexanone,-1.33,log(mol/L),-1.33,log(mol/L),110-12-3,114.18799999999999,1,0,2.0116,1,0.046773514128719815
c1ccsc1,thiophene,-1.33,log(mol/L),-1.33,log(mol/L),-,84.14299999999999,1,0,1.7480999999999998,1,0.046773514128719815
CCSCC,Diethyl sulfide,-1.34,log(mol/L),-1.34,log(mol/L),-,90.191,1,0,1.7593999999999999,1,0.04570881896148749
Nc1ccc(S(N)(=O)=O)cc1,sulfanilamide,-1.34,log(mol/L),-1.34,log(mol/L),-,172.20900000000003,3,2,-0.08380000000000004,1,0.04570881896148749
CCCOC(C)C,propyl isopropyl ether,-1.34,log(mol/L),-1.34,log(mol/L),627-08-7,102.17699999999998,1,0,1.8214000000000001,1,0.04570881896148749
CCCCC(=O)OC,Propyl propanoate,-1.34,log(mol/L),-1.34,log(mol/L),-,116.15999999999998,2,0,1.3496000000000001,1,0.04570881896148749
CCCOC(C)C,Propylisopropylether,-1.34,log(mol/L),-1.34,log(mol/L),-,102.17699999999998,1,0,1.8214000000000001,1,0.04570881896148749
Oc1cc(Cl)cc(Cl)c1,"3,5-Dichlorophenol",-1.34,log(mol/L),-1.34,log(mol/L),-,163.003,1,1,2.699,1,0.04570881896148749
CNC(=NC#N)NCCSCc1nc[nH]c1C,Cimetidine,-1.35,log(mol/L),-1.35,log(mol/L),51481-61-9,252.347,4,3,0.5973999999999997,1,0.0446683592150963
CCN(CC)CCNC(=O)c1ccc(N)cc1,Procainamide,>43800.0,?M/L,-1.359,log(mol/L),-,235.33100000000002,3,2,1.3403999999999996,1,0.04375221051582521
CCCC(=O)OCC,Methyl pentanoate,-1.36,log(mol/L),-1.36,log(mol/L),-,116.15999999999998,2,0,1.3496000000000001,1,0.043651583224016584
CCOC(=O)C(CCc1ccccc1)NC(C)C(=O)N1CCCC1C(=O)O,enalapril,-1.36,log(mol/L),-1.36,log(mol/L),-,376.45300000000026,5,2,1.6046,1,0.043651583224016584
CCCCC(=O)OC,methyl valerate,-1.36,log(mol/L),-1.36,log(mol/L),624-24-8,116.15999999999998,2,0,1.3496000000000001,1,0.043651583224016584
CCc1ccccc1O,o-ethylphenol,-1.36,log(mol/L),-1.36,log(mol/L),90-00-6,122.16699999999996,1,1,1.9545999999999997,1,0.043651583224016584
Nc1ccc(S(N)(=O)=O)cc1,sulfanilamide,-1.36,log(mol/L),-1.36,log(mol/L),63-74-1,172.20900000000003,3,2,-0.08380000000000004,1,0.043651583224016584
CC,Ethane,-1.36,log(mol/L),-1.36,log(mol/L),-,30.07,0,0,1.0262,1,0.043651583224016584
C=CCCl,3-chloropropylene,-1.36,log(mol/L),-1.36,log(mol/L),107-05-1,76.526,0,0,1.4112,1,0.043651583224016584
CCOC(=O)CC(=O)C(F)(F)F,"Butanoic acid, 4,4,4-trifluoro-3-oxo-, ethyl est",8000.0,mg/L,-1.362,log(mol/L),372-31-6,184.11299999999997,3,0,1.0710000000000002,1,0.04345102241715714
N=C(N)N[N+](=O)[O-],nitroguanidine,-1.37,log(mol/L),-1.37,log(mol/L),556-88-7,104.06899999999999,3,3,-1.3388299999999997,1,0.04265795188015926
Cn1c(=O)c2nc[nH]c2n(C)c1=O,Theophylline,-1.37,log(mol/L),-1.37,log(mol/L),58-55-9,180.16699999999997,5,1,-1.0397000000000005,1,0.04265795188015926
Nc1cccc(Cl)c1,m-Chloroaniline,-1.37,log(mol/L),-1.37,log(mol/L),-,127.574,1,1,1.9222,1,0.04265795188015926
CCCCOC=O,Butyl acetate,-1.37,log(mol/L),-1.37,log(mol/L),-,102.13299999999998,2,0,0.9595,1,0.04265795188015926
Nc1cccc(Cl)c1,3-chloroaniline,-1.37,log(mol/L),-1.37,log(mol/L),108-42-9,127.574,1,1,1.9222,1,0.04265795188015926
CC(C)CCC(C)O,5-methyl-2-hexanol,-1.38,log(mol/L),-1.38,log(mol/L),627-59-8,116.20399999999998,1,1,1.8034,1,0.04168693834703355
OCCCc1ccccc1,3-phenylpropanol,-1.38,log(mol/L),-1.38,log(mol/L),122-97-4,136.194,1,1,1.6115,1,0.04168693834703355
Cc1ccc(O)cc1C,"3,4-Dimethylphenol",-1.38,log(mol/L),-1.38,log(mol/L),-,122.16699999999999,1,1,2.0090399999999997,1,0.04168693834703355
CCC1(CC)C(=O)NC(=O)NC1=O,barbital,-1.39,log(mol/L),-1.39,log(mol/L),57-44-3,184.195,3,2,0.15879999999999994,1,0.04073802778041128
O=C1OC(=O)c2ccccc21,phthalic anhydride,-1.39,log(mol/L),-1.39,log(mol/L),85-44-9,148.11699999999996,3,0,0.9972,1,0.04073802778041128
Cn1c(=O)c2[nH]cnc2n(C)c1=O,Theophylline,-1.39,log(mol/L),-1.39,log(mol/L),-,180.16699999999997,5,1,-1.0397000000000005,1,0.04073802778041128
Cn1c(=O)c2nc[nH]c2n(C)c1=O,Theophylline,-1.39,log(mol/L),-1.39,log(mol/L),58-55-9,180.16699999999997,5,1,-1.0397000000000005,1,0.04073802778041128
Cc1cc(C)cc(O)c1,"3,5-xylenol",-1.4,log(mol/L),-1.4,log(mol/L),108-68-9,122.16699999999997,1,1,2.0090399999999997,1,0.039810717055349734
CCN(CC)CCOC(=O)c1ccc(N)cc1,procaine,-1.4,log(mol/L),-1.4,log(mol/L),59-46-1,236.315,4,1,1.7673999999999999,1,0.039810717055349734
Cc1cc(C)cc(O)c1,"3,5-Dimethylphenol",-1.4,log(mol/L),-1.4,log(mol/L),-,122.16699999999997,1,1,2.0090399999999997,1,0.039810717055349734
CCCC(O)CCC,4-heptanol,-1.4,log(mol/L),-1.4,log(mol/L),-,116.204,1,1,1.9475,1,0.039810717055349734
CCCC(O)CCC,4-heptanol,-1.4,log(mol/L),-1.4,log(mol/L),589-55-9,116.204,1,1,1.9475,1,0.039810717055349734
CC(=O)Nc1ccccc1Cl,2'-chloroacetanilide,-1.4,log(mol/L),-1.4,log(mol/L),533-17-5,169.61099999999996,1,1,2.2984,1,0.039810717055349734
Cc1ccc(O)cc1C,"3,4-xylenol",-1.41,log(mol/L),-1.41,log(mol/L),95-65-8,122.16699999999999,1,1,2.0090399999999997,1,0.03890451449942807
CC(C)Cl,2-chloropropane,-1.41,log(mol/L),-1.41,log(mol/L),-,78.542,0,0,1.6336,1,0.03890451449942807
O=C(O)CCc1ccccc1,hydrocinnamic acid,-1.41,log(mol/L),-1.41,log(mol/L),501-52-0,150.177,1,1,1.7038,1,0.03890451449942807
CC(C)Cl,2-chloropropane,-1.41,log(mol/L),-1.41,log(mol/L),75-29-6,78.542,0,0,1.6336,1,0.03890451449942807
O=C(O)c1ccc(O)cc1,p-hydroxybenzoic acid,-1.41,log(mol/L),-1.41,log(mol/L),99-96-7,138.12199999999999,2,2,1.0903999999999998,1,0.03890451449942807
CCCCCC(C)=O,2-Heptanone,-1.42,log(mol/L),-1.42,log(mol/L),110-43-0,114.18799999999999,1,0,2.1557000000000004,1,0.038018939632056124
CC1(C(=O)O)CCC(C(=O)O)C1(C)C,d-camphoric acid,-1.42,log(mol/L),-1.42,log(mol/L),124-83-4,200.23399999999998,2,2,1.5980999999999999,1,0.038018939632056124
CN(C)C1C(=O)C(C(=O)NCN2CCCC2)=C(O)C2(O)C(=O)C3=C(O)c4c(O)cccc4C(C)(O)C3CC12,rolitetracycline,-1.42,log(mol/L),-1.42,log(mol/L),-,527.5740000000002,10,6,0.3132000000000033,0,0.038018939632056124
CN(C)C1C(O)=C(C(=O)NCN2CCCC2)C(=O)C2(O)C(O)=C3C(=O)c4c(O)cccc4C(C)(O)C3CC12,rolitetracycline,-1.42,log(mol/L),-1.42,log(mol/L),751-97-3,527.5740000000002,10,6,0.46980000000000227,0,0.038018939632056124
CC(=O)CC(C)C,4-Methyl-2-pentanone,-1.42,log(mol/L),-1.42,log(mol/L),108-10-1,100.16099999999999,1,0,1.6215,1,0.038018939632056124
c1ccc(-c2ccccn2)nc1,"2,2'-BIPYRIDINE",-1.42,log(mol/L),-1.42,log(mol/L),366-18-7,156.18799999999996,2,0,2.1435999999999993,1,0.038018939632056124
CN(C)C1C(=O)C(C(=O)NCN2CCCC2)=C(O)C2(O)C(=O)C3=C(O)c4c(O)cccc4C(C)(O)C3CC12,rolitetracycline,-1.42,log(mol/L),-1.42,log(mol/L),751-97-3,527.5740000000002,10,6,0.3132000000000033,0,0.038018939632056124
c1ccc(-c2ccccn2)nc1,"2,2?-bipyridine",-1.42,log(mol/L),-1.42,log(mol/L),366-18-7,156.18799999999996,2,0,2.1435999999999993,1,0.038018939632056124
Cc1cccc(O)c1C,"2,3-xylenol",-1.43,log(mol/L),-1.43,log(mol/L),526-75-0,122.16699999999999,1,1,2.0090399999999997,1,0.03715352290971726
CCC1(CC)C(=O)NC(=O)NC1=O,barbital,-1.43,log(mol/L),-1.43,log(mol/L),-,184.195,3,2,0.15879999999999994,1,0.03715352290971726
CCCCNCCCC,n-dibutylamine,-1.44,log(mol/L),-1.44,log(mol/L),111-92-2,129.24699999999999,1,1,2.1761999999999997,1,0.03630780547701014
CSSC,dimethyldisulfide,-1.44,log(mol/L),-1.44,log(mol/L),-,94.20400000000001,2,0,1.6274,1,0.03630780547701014
O=C(O)c1cc(Br)cc(C(=O)O)c1C(=O)O,"1,2,3-Benzenetricarboxylic acid, 5-bromo-",10300.0,mg/L,-1.448,log(mol/L),34163-34-3,289.03700000000003,3,3,1.5436999999999999,1,0.03564511334262443
O=C(O)C1CCCCC1,cyclohexanecarboxylic acid,-1.45,log(mol/L),-1.45,log(mol/L),98-89-5,128.17100000000002,1,1,1.6513,1,0.03548133892335755
c1ccsc1,thiophene,-1.45,log(mol/L),-1.45,log(mol/L),110-02-1,84.14299999999999,1,0,1.7480999999999998,1,0.03548133892335755
c1ccc2cnccc2c1,isoquinoline,-1.45,log(mol/L),-1.45,log(mol/L),119-65-3,129.16199999999998,1,0,2.2348,1,0.03548133892335755
CCCCCC(C)=O,2-Heptanone,-1.45,log(mol/L),-1.45,log(mol/L),-,114.18799999999999,1,0,2.1557000000000004,1,0.03548133892335755
c1ccc2cnccc2c1,isoquinoline,-1.45,log(mol/L),-1.45,log(mol/L),-,129.16199999999998,1,0,2.2348,1,0.03548133892335755
Cc1cc([N+](=O)[O-])cc([N+](=O)[O-])c1O,DNOC,-1.456,log(mol/L),-1.456,log(mol/L),-,198.134,5,1,1.5170199999999998,1,0.03499451670283573
Cc1c[nH]c(=O)nc1N,5-methylcytosine,-1.458,log(mol/L),-1.458,log(mol/L),-,125.13100000000001,3,2,-0.33948000000000017,1,0.03483373150360118
CCNC(=S)NCC,"1,3-diethylthiourea",-1.46,log(mol/L),-1.46,log(mol/L),-,132.232,1,2,0.49030000000000007,1,0.034673685045253165
CCNC(=S)NCC,"1,3-diethylthiourea",-1.46,log(mol/L),-1.46,log(mol/L),105-55-5,132.232,1,2,0.49030000000000007,1,0.034673685045253165
O=C(O)c1ccc(O)cc1,5_hydroxybenzoic_acid,34323.2,?M/L,-1.464,log(mol/L),-,138.12199999999999,2,2,1.0903999999999998,1,0.034355794789987466
Nc1cccc(C(F)(F)F)c1,-,3.74,log(mg/L),-1.467,log(mol/L),98-16-8,161.126,1,1,2.2876000000000003,1,0.034119291162192845
CCCCl,1-Chloropropane,-1.47,log(mol/L),-1.47,log(mol/L),-,78.542,0,0,1.6352,1,0.033884415613920256
O=C(O)c1ccsc1,thiophene-3-carboxylic acid,-1.47,log(mol/L),-1.47,log(mol/L),88-13-1,128.152,2,1,1.4463,1,0.033884415613920256
CCCCl,1-Chloropropane,-1.47,log(mol/L),-1.47,log(mol/L),540-54-5,78.542,0,0,1.6352,1,0.033884415613920256
CCCCCOC(N)=O,n-amyl carbamate,-1.47,log(mol/L),-1.47,log(mol/L),638-42-6,131.175,2,1,1.2719,1,0.033884415613920256
CCCCC(O)CC,3-heptanol,-1.47,log(mol/L),-1.47,log(mol/L),589-82-2,116.20399999999998,1,1,1.9475,1,0.033884415613920256
Nc1cccc(C(F)(F)F)c1,3-trifluoromethylaniline,5460.0,mg/L,-1.47,log(mol/L),98-16-8,161.126,1,1,2.2876000000000003,1,0.033884415613920256
CCCCC(O)CC,3-heptanol,-1.47,log(mol/L),-1.47,log(mol/L),-,116.20399999999998,1,1,1.9475,1,0.033884415613920256
Nc1cccc(C(F)(F)F)c1,3-trifluoromethylaniline,-1.47,log(mol/L),-1.47,log(mol/L),98-16-8,161.126,1,1,2.2876000000000003,1,0.033884415613920256
O=c1cc[nH]c(=O)[nH]1,Uracil,-1.48,log(mol/L),-1.48,log(mol/L),66-22-8,112.088,2,2,-0.9368000000000001,1,0.03311311214825911
ClCC(Cl)Cl,"1,1,2-trichloroethane",-1.48,log(mol/L),-1.48,log(mol/L),79-00-5,133.405,0,0,2.0289,1,0.03311311214825911
COc1ccc2c3c1OC1C(O)C=CC4C(C2)N(C)CCC341,Codeine,-1.48,log(mol/L),-1.48,log(mol/L),-,299.3700000000001,4,1,1.5010999999999999,1,0.03311311214825911
ClCC(Cl)Cl,"1,1,2-trichloroethane",-1.48,log(mol/L),-1.48,log(mol/L),-,133.405,0,0,2.0289,1,0.03311311214825911
O=c1cc[nH]c(=O)[nH]1,Uracil,-1.488,log(mol/L),-1.488,log(mol/L),-,112.088,2,2,-0.9368000000000001,1,0.032508729738543435
COc1ccc(C=O)cc1,p-methoxybenzaldehyde,-1.49,log(mol/L),-1.49,log(mol/L),-,136.14999999999998,2,0,1.5076999999999998,1,0.03235936569296283
COc1ccc(C=O)cc1,p-methoxybenzaldehyde,-1.49,log(mol/L),-1.49,log(mol/L),123-11-5,136.14999999999998,2,0,1.5076999999999998,1,0.03235936569296283
O=C(O)c1ccccc1C(=O)O,phthalic_acid_form_I,32158.4,?M/L,-1.493,log(mol/L),-,166.13199999999998,2,2,1.083,1,0.032136605386403165
O=S(=O)(CCCl)CCCl,bis-(2-chloroethyl)-sulfone,-1.5,log(mol/L),-1.5,log(mol/L),471-03-4,191.07899999999998,2,0,0.8788,1,0.03162277660168379
CCCC1CCCCN1,coniine,-1.5,log(mol/L),-1.5,log(mol/L),458-88-8,127.23100000000001,1,1,1.9286,1,0.03162277660168379
c1ccc2scnc2c1,benzothiazole,-1.5,log(mol/L),-1.5,log(mol/L),95-16-9,135.191,2,0,2.2962999999999996,1,0.03162277660168379
C=CCBr,3-bromopropylene,-1.5,log(mol/L),-1.5,log(mol/L),-,120.97699999999999,0,0,1.5673,1,0.03162277660168379
C=CCBr,3-bromopropylene,-1.5,log(mol/L),-1.5,log(mol/L),106-95-6,120.97699999999999,0,0,1.5673,1,0.03162277660168379
O=S(=O)(CCCl)CCCl,bis-(2-chloroethyl)-sulfone,-1.5,log(mol/L),-1.5,log(mol/L),-,191.07899999999998,2,0,0.8788,1,0.03162277660168379
c1ccc2scnc2c1,benzothiazole,-1.5,log(mol/L),-1.5,log(mol/L),-,135.191,2,0,2.2962999999999996,1,0.03162277660168379
Cc1c[nH]c(=O)[nH]c1=O,Thymine,-1.506,log(mol/L),-1.506,log(mol/L),-,126.115,2,2,-0.6283800000000002,1,0.031188895840939368
N=C(N)NCC(=O)O,guanidinoacetic acid,-1.51,log(mol/L),-1.51,log(mol/L),352-97-6,117.10799999999999,2,4,-1.4459299999999997,1,0.030902954325135904
FC(F)OC(F)(F)C(F)Cl,ETHRANE [HALOETHER],5620.0,mg/L,-1.516,log(mol/L),13838-16-9,184.491,1,0,2.3528000000000002,1,0.03047894989627983
CCCC(C)(C)CO,"2,2-dimethyl-1-pentanol",-1.52,log(mol/L),-1.52,log(mol/L),-,116.20399999999998,1,1,1.8050000000000002,1,0.03019951720402016
CCC(C=O)CC,2-Ethylbutanal,-1.52,log(mol/L),-1.52,log(mol/L),-,100.161,1,0,1.6215,1,0.03019951720402016
Nc1ccccc1C(=O)O,2-aminobenzoic acid,-1.52,log(mol/L),-1.52,log(mol/L),118-92-3,137.138,2,2,0.9670000000000001,1,0.03019951720402016
Cc1c[nH]c(=O)[nH]c1=O,5-methyluracil,-1.52,log(mol/L),-1.52,log(mol/L),65-71-4,126.115,2,2,-0.6283800000000002,1,0.03019951720402016
CCCC(C)(C)CO,"2,2-Dimethylpentanol",-1.52,log(mol/L),-1.52,log(mol/L),-,116.20399999999998,1,1,1.8050000000000002,1,0.03019951720402016
c1ccc2[nH]ccc2c1,indole,-1.52,log(mol/L),-1.52,log(mol/L),120-72-9,117.15099999999997,0,1,2.1678999999999995,1,0.03019951720402016
Nc1ccccc1Cl,2-chloroaniline,-1.52,log(mol/L),-1.52,log(mol/L),95-51-2,127.574,1,1,1.9222,1,0.03019951720402016
CC(=O)NS(=O)(=O)c1ccc(N)cc1,Sulfacetamide,30204.0,?M/L,-1.52,log(mol/L),-,214.246,4,2,0.0935999999999998,1,0.03019951720402016
COc1ccc2c3c1OC1C(O)C=CC4C(C2)N(C)CCC341,Codeine,-1.52,log(mol/L),-1.52,log(mol/L),76-57-3,299.3700000000001,4,1,1.5010999999999999,1,0.03019951720402016
Nc1ccccc1Cl,o-Chloroaniline,-1.52,log(mol/L),-1.52,log(mol/L),-,127.574,1,1,1.9222,1,0.03019951720402016
CC(C)CCOC=O,Isopentyl formate,-1.52,log(mol/L),-1.52,log(mol/L),-,116.15999999999998,2,0,1.2055,1,0.03019951720402016
c1ccc2[nH]ccc2c1,indole,-1.52,log(mol/L),-1.52,log(mol/L),-,117.15099999999997,0,1,2.1678999999999995,1,0.03019951720402016
NCc1ccccc1,benzylamine,-1.53,log(mol/L),-1.53,log(mol/L),100-46-9,107.15599999999996,1,1,1.1453,1,0.029512092266663854
CC1(C)SC2C(NC(=O)C(N)c3ccccc3)C(=O)N2C1C(=O)O,Ampicillin,-1.54,log(mol/L),-1.54,log(mol/L),-,349.4120000000001,5,3,0.3181000000000002,1,0.028840315031266057
ClC(Cl)Br,bromodichloromethane,-1.54,log(mol/L),-1.54,log(mol/L),75-27-4,163.829,0,0,2.1425,1,0.028840315031266057
c1cc(-c2ccncc2)ccn1,"4,4'-Bipyridine",-1.54,log(mol/L),-1.54,log(mol/L),553-26-4,156.188,2,0,2.1435999999999993,1,0.028840315031266057
Cc1ccc(C)c(O)c1,"2,5-xylenol",-1.54,log(mol/L),-1.54,log(mol/L),95-87-4,122.16699999999999,1,1,2.0090399999999997,1,0.028840315031266057
ClC(Cl)Br,bromodichloromethane,-1.54,log(mol/L),-1.54,log(mol/L),-,163.829,0,0,2.1425,1,0.028840315031266057
c1cc(-c2ccncc2)ccn1,"4,4?-bipyridine",-1.54,log(mol/L),-1.54,log(mol/L),553-26-4,156.188,2,0,2.1435999999999993,1,0.028840315031266057
CSc1cnc2cncnc2n1,7-methylthiopteridine,-1.55,log(mol/L),-1.55,log(mol/L),204443-30-1,178.22,5,0,1.1417,1,0.028183829312644536
CC(C)(C)CCCO,"4,4-dimethyl-1-pentanol",-1.55,log(mol/L),-1.55,log(mol/L),3121-79-7,116.204,1,1,1.8050000000000002,1,0.028183829312644536
CCCCCC(C)O,2-heptanol,-1.55,log(mol/L),-1.55,log(mol/L),-,116.20399999999998,1,1,1.9475000000000002,1,0.028183829312644536
O=C(O)c1ccccc1,Benzoic acid,-1.55,log(mol/L),-1.55,log(mol/L),65-85-0,122.12299999999996,1,1,1.3848,1,0.028183829312644536
Oc1ccc(Cl)cc1Cl,"2,4-dichlorophenol",-1.55,log(mol/L),-1.55,log(mol/L),-,163.003,1,1,2.699,1,0.028183829312644536
Cc1cccc(C)c1NC(=O)C1CCCCN1C,"d,l-mepivacaine",-1.55,log(mol/L),-1.55,log(mol/L),96-88-8,246.35399999999996,2,1,2.7262400000000007,1,0.028183829312644536
CCCCCC(C)O,2-heptanol,-1.55,log(mol/L),-1.55,log(mol/L),543-49-7,116.20399999999998,1,1,1.9475000000000002,1,0.028183829312644536
Cc1cccc(C)c1NC(=O)C1CCCCN1C,Mepivacaine,-1.55,log(mol/L),-1.55,log(mol/L),-,246.35399999999996,2,1,2.7262400000000007,1,0.028183829312644536
Oc1ccc(Cl)cc1Cl,"2,4-dichlorophenol",-1.55,log(mol/L),-1.55,log(mol/L),120-83-2,163.003,1,1,2.699,1,0.028183829312644536
CSc1cnc2ncncc2n1,7-methylthiopteridine,-1.55,log(mol/L),-1.55,log(mol/L),-,178.22,5,0,1.1417,1,0.028183829312644536
C=CCc1ccc(O)c(OC)c1,eugenol,-1.56,log(mol/L),-1.56,log(mol/L),-,164.20399999999995,2,1,2.1292999999999997,1,0.02754228703338166
Cn1c(=O)[nH]c2[nH]c(=O)[nH]c2c1=O,1-methyluric acid,-1.56,log(mol/L),-1.56,log(mol/L),708-79-2,182.13899999999998,4,3,-1.7568000000000001,1,0.02754228703338166
NS(=O)(=O)c1ccccc1,benzenesulfonamide,-1.56,log(mol/L),-1.56,log(mol/L),98-10-2,157.194,2,1,0.3340000000000002,1,0.02754228703338166
C=CCc1ccc(O)c(OC)c1,eugenol,-1.56,log(mol/L),-1.56,log(mol/L),97-53-0,164.20399999999995,2,1,2.1292999999999997,1,0.02754228703338166
CCCCC(=O)CC(C)=O,"2,4-octadione",-1.56,log(mol/L),-1.56,log(mol/L),14090-87-0,142.19799999999998,2,0,1.7247999999999999,1,0.02754228703338166
Cc1cc(O)ccc1Cl,3-methyl-4-chlorophenol,-1.57,log(mol/L),-1.57,log(mol/L),-,142.58499999999998,1,1,2.3540200000000002,1,0.026915348039269153
Cc1cc(O)ccc1Cl,3-methyl-4-chlorophenol,-1.57,log(mol/L),-1.57,log(mol/L),59-50-7,142.58499999999998,1,1,2.3540200000000002,1,0.026915348039269153
CNC(=O)Oc1ccccc1C1OCCO1,dioxacarb,-1.57,log(mol/L),-1.57,log(mol/L),6988-21-2,223.22799999999995,4,1,1.4502,1,0.026915348039269153
CNC(=O)Oc1ccccc1C1OCCO1,dioxacarb,-1.57,log(mol/L),-1.57,log(mol/L),-,223.22799999999995,4,1,1.4502,1,0.026915348039269153
CCN(CC)CCOC(=O)c1ccc(N)cc1,procaine,-1.57,log(mol/L),-1.57,log(mol/L),-,236.315,4,1,1.7673999999999999,1,0.026915348039269153
CC1CN(c2c(F)c(F)c3c(=O)c(C(=O)O)cn(C4CC4)c3c2F)CC(C)N1,orbifloxacin,>26800.0,?M/L,-1.572,log(mol/L),-,395.38100000000014,5,2,2.6385000000000005,1,0.026791683248190316
CC(=O)Nc1ccc(C=O)cc1,4-formylacetanilide,-1.58,log(mol/L),-1.58,log(mol/L),122-85-0,163.176,2,1,1.4574999999999998,1,0.026302679918953815
COC(=O)c1ccc(N)cc1,methyl-4-aminobenzoate,-1.59,log(mol/L),-1.59,log(mol/L),619-45-4,151.16500000000002,3,1,1.0554,1,0.025703957827688632
CC(C)Br,2-bromopropane,-1.59,log(mol/L),-1.59,log(mol/L),-,122.993,0,0,1.7897,1,0.025703957827688632
CC(C)Br,2-bromopropane,-1.59,log(mol/L),-1.59,log(mol/L),75-26-3,122.993,0,0,1.7897,1,0.025703957827688632
NC(C(=O)NC1C(=O)N2C(C(=O)O)=C(Cl)CSC12)c1ccccc1,Cefaclor,-1.59,log(mol/L),-1.59,log(mol/L),-,367.814,5,3,0.6213000000000004,1,0.025703957827688632
CC(Cl)CCl,"1,2-dichloropropane",-1.6,log(mol/L),-1.6,log(mol/L),-,112.98700000000001,0,0,1.8525,1,0.025118864315095794
CC(Cl)CCl,"1,2-dichloropropane",-1.6,log(mol/L),-1.6,log(mol/L),78-87-5,112.98700000000001,0,0,1.8525,1,0.025118864315095794
CC(=O)CC(=O)CC(C)C,"6-methyl-2,4-heptadione",-1.6,log(mol/L),-1.6,log(mol/L),3002-23-1,142.19799999999998,2,0,1.5807,1,0.025118864315095794
O=C(O)c1ccccc1C(F)(F)F,trifluoro-o-toluic acid,-1.6,log(mol/L),-1.6,log(mol/L),433-97-6,190.11999999999995,1,1,2.403600000000001,1,0.025118864315095794
CN(C)C(=O)Nc1ccccc1,fenuron,-1.6,log(mol/L),-1.6,log(mol/L),-,164.208,1,1,1.7801,1,0.025118864315095794
NC(Cc1ccc(O)c(O)c1)C(=O)O,levodopa,-1.6,log(mol/L),-1.6,log(mol/L),-,197.18999999999997,4,4,0.052200000000000135,1,0.025118864315095794
CCCCC(C)(O)CC,3-methyl-3-heptanol,-1.6,log(mol/L),-1.6,log(mol/L),-,130.23099999999997,1,1,2.3376,1,0.025118864315095794