SMILES,NAME,Water solubility,UNIT {Water solubility},Solubility_log(mol/L),UNIT {Water solubility}.1,CASRN
CCCCOCCO,2-butoxyethanol,-0.42,log(mol/L),-0.42,log(mol/L),-
OC(CCI)=O,beta-iodopropionic acid,-0.43,log(mol/L),-0.43,log(mol/L),141-76-4
CCOC(C)OCC,"1,1-diethoxyethane",-0.43,log(mol/L),-0.43,log(mol/L),-
CC(OCC)OCC,"1,1-diethoxyethane",-0.43,log(mol/L),-0.43,log(mol/L),105-57-7
OC1CCCCC1,cyclohexanol,-0.44,log(mol/L),-0.44,log(mol/L),108-93-0
OC1CCCCC1,cyclohexanol,-0.44,log(mol/L),-0.44,log(mol/L),-
CSC,Dimethyl sulfide,-0.45,log(mol/L),-0.45,log(mol/L),-
CC(CC1CCCCN1)=O,pelletierine,-0.45,log(mol/L),-0.45,log(mol/L),-
N1CCCCC1CC(=O)C,pelletierine,-0.45,log(mol/L),-0.45,log(mol/L),-
COC(=O)C1=CC=CN=C1,methyl nicotinate,-0.46,log(mol/L),-0.46,log(mol/L),-
CCCNCCC,dipropylamine,-0.46,log(mol/L),-0.46,log(mol/L),142-84-7
O=C(C1=CC=CN=C1)OC,methyl nicotinate,-0.46,log(mol/L),-0.46,log(mol/L),-
OC1=CC=CN=C1,3-hydroxypyridine,-0.46,log(mol/L),-0.46,log(mol/L),109-00-2
O=C(C1=CC=CN=C1)OC,methyl nicotinate,-0.46,log(mol/L),-0.46,log(mol/L),93-60-7
N1=C2C(=NC=NC2=NC=C1)C,4-methylpteridine,-0.466,log(mol/L),-0.466,log(mol/L),-
CC1=NC=2N=CC=NC2C=N1,4-methylpteridine,-0.47,log(mol/L),-0.47,log(mol/L),-
CC1=NC=NC2=C1N=CC=N2,4-methylpteridine,-0.47,log(mol/L),-0.47,log(mol/L),2432-21-5
CCC(C)CO,2-Methylbutanol,-0.47,log(mol/L),-0.47,log(mol/L),-
CC(CO)CC,2-methyl-1-butanol,-0.47,log(mol/L),-0.47,log(mol/L),137-32-6
O=C(C(CO)C1=CC=CC=C1)OC2CC3C4OC4C(C2)N3C,Scopolamine,-0.48,log(mol/L),-0.48,log(mol/L),51-34-3
O=C(C1=CC=CO1)O,2-furoic acid,-0.48,log(mol/L),-0.48,log(mol/L),88-14-2
OC(C1=CC=CC=C1)CN,phenylethanolamine,-0.48,log(mol/L),-0.48,log(mol/L),-
NCC(O)C1=CC=CC=C1,phenylethanolamine,-0.48,log(mol/L),-0.48,log(mol/L),7568-93-6
O=S(=O)(C1=C(C=C(C(=C1Br)N)Br)Br)O,"Benzenesulfonic acid, 3-amino-2,4,6-tribromo-",133000.0,mg/L,-0.4888,log(mol/L),58585-89-0
O=COCCC,propyl formate,-0.49,log(mol/L),-0.49,log(mol/L),110-74-7
CCCC(C)(C)O,2-methyl-2-pentanol,-0.49,log(mol/L),-0.49,log(mol/L),-
CC(C)(O)CCC,2-methyl-2-pentanol,-0.49,log(mol/L),-0.49,log(mol/L),590-36-3
CCCOC=O,propyl formate,-0.49,log(mol/L),-0.49,log(mol/L),-
OCCC(C)(C)C,"3,3-dimethyl-1-butanol",-0.5,log(mol/L),-0.5,log(mol/L),624-95-3
CC(C)(C)CCO,"3,3-dimethyl-1-butanol",-0.5,log(mol/L),-0.5,log(mol/L),-
NCCC(C(NC1CC(C(C(C1OC2OC(C(C(C2O)N)O)CO)O)OC3OC(C(C(C3O)O)O)CN)N)=O)O,amikacin,-0.5,log(mol/L),-0.5,log(mol/L),37517-28-5
NCCC(O)C(=O)NC1CC(N)C(OC2OC(CN)C(O)C(O)C2O)C(O)C1OC3OC(CO)C(O)C(N)C3O,amikacin,-0.5,log(mol/L),-0.5,log(mol/L),-
CN1C2CC(CC1C3OC23)OC(=O)C(CO)C4=CC=CC=C4,Scopolamine,-0.5,log(mol/L),-0.5,log(mol/L),-
CC(C)CCO,3-Methylbutan-1-ol,-0.51,log(mol/L),-0.51,log(mol/L),-
CC(C)CCO,isopentanol,-0.52,log(mol/L),-0.52,log(mol/L),123-51-3
NC(CC1=CN=CN1)C(O)=O,histidine,-0.53,log(mol/L),-0.53,log(mol/L),71-00-1
N=1C(=CNC1)CC(N)C(O)=O,histidine,-0.53,log(mol/L),-0.53,log(mol/L),71-00-1
CCCC(O)C(CC)CO,"2-ethyl-1,3-hexanediol",-0.54,log(mol/L),-0.54,log(mol/L),94-96-2
OC(C(N)CCC(N)=O)=O,glutamine,-0.55,log(mol/L),-0.55,log(mol/L),56-85-9
C(C)(=O)OC(C)C,Isopropyl acetate,-0.55,log(mol/L),-0.55,log(mol/L),108-21-4
CCOC(C)C,ethyl isopropyl ether,-0.55,log(mol/L),-0.55,log(mol/L),625-54-7
CC(C)OC(=O)C,Isopropyl acetate,-0.55,log(mol/L),-0.55,log(mol/L),-
CC(=O)CCCCN1C(=O)N(C)C=2N=CN(C)C2C1=O,Pentoxifylline,-0.56,log(mol/L),-0.56,log(mol/L),-
CC1CO1,propylene oxide,-0.59,log(mol/L),-0.59,log(mol/L),75-56-9
CCCC(O)C=C,1-Hexene-3-ol,-0.59,log(mol/L),-0.59,log(mol/L),-
CC1CO1,"1,2-Propylene oxide",-0.59,log(mol/L),-0.59,log(mol/L),-
O=C1CCCCC1,cyclohexanone,-0.6,log(mol/L),-0.6,log(mol/L),108-94-1
CC(OCC(OC(C)=O)COC(C)=O)=O,glyceryl triacetate,-0.6,log(mol/L),-0.6,log(mol/L),102-76-1
CC(=O)OCC(COC(=O)C)OC(=O)C,glyceryl triacetate,-0.6,log(mol/L),-0.6,log(mol/L),-
CCCCCO,1-Pentanol,-0.6,log(mol/L),-0.6,log(mol/L),71-41-0
CCS,ethanethiol,-0.6,log(mol/L),-0.6,log(mol/L),75-08-1
O=C1CCCCC1,cyclohexanone,-0.6,log(mol/L),-0.6,log(mol/L),-
CCS,ethanethiol,-0.6,log(mol/L),-0.6,log(mol/L),-
CCCCCO,1-Pentanol,-0.6,log(mol/L),-0.6,log(mol/L),-
O(C1=C(OC)C=CC=C1)CC(O)CO,Guaifenesin,-0.6,log(mol/L),-0.6,log(mol/L),-
CC(C)N(=O)=O,2-nitropropane,-0.62,log(mol/L),-0.62,log(mol/L),79-46-9
CC(C)(C)C(O)C,"3,3-dimethyl-2-butanol",-0.62,log(mol/L),-0.62,log(mol/L),464-07-3
CN1N(C2=CC=CC=C2)C(C(N)=C1C)=O,Ampyrone,-0.62,log(mol/L),-0.62,log(mol/L),83-07-8
OC1=CC=CC=C1C,o-cresol,-0.62,log(mol/L),-0.62,log(mol/L),95-48-7
C1=CC=CC=C1N2C(=O)C(N(C)C)=C(C)N2C,Aminopyrine,-0.62,log(mol/L),-0.62,log(mol/L),-
CC(O)C(C)(C)C,"3,3-dimethyl-2-butanol",-0.62,log(mol/L),-0.62,log(mol/L),-
CC(C)N(=O)=O,2-nitropropane,-0.62,log(mol/L),-0.62,log(mol/L),-
CC1=CC=CC=C1O,2-Methylphenol,-0.62,log(mol/L),-0.62,log(mol/L),-
CC1=C(N)C(=O)N(C2=CC=CC=C2)N1C,Ampyrone,-0.624,log(mol/L),-0.624,log(mol/L),-
CC(C)OC=O,Isopropyl formate,-0.63,log(mol/L),-0.63,log(mol/L),-
O=C1N(C2=CC=CC=C2)N(C)C(C)=C1N(C)C,Aminopyrine,-0.63,log(mol/L),-0.63,log(mol/L),58-15-1
ClCCl,Dichloromethane,-0.63,log(mol/L),-0.63,log(mol/L),75-09-2
ClCCl,Dichloromethane,-0.63,log(mol/L),-0.63,log(mol/L),-
CCCOCC,ethyl propyl ether,-0.66,log(mol/L),-0.66,log(mol/L),-
CCOCCC,ethyl propyl ether,-0.66,log(mol/L),-0.66,log(mol/L),628-32-0
CCOC(=O)CC,ethyl propionate,-0.66,log(mol/L),-0.66,log(mol/L),-
O=C(CC)OCC,ethyl propionate,-0.66,log(mol/L),-0.66,log(mol/L),105-37-3
NC(OCCCC)=O,o-butyl carbamate,-0.66,log(mol/L),-0.66,log(mol/L),592-35-8
NC(C1=CN=CC=N1)=O,Pyrazinamide,-0.667,log(mol/L),-0.667,log(mol/L),-
CCC(C)C(=O)C,3-Methyl-2-pentanone,-0.67,log(mol/L),-0.67,log(mol/L),-
CC1=CC=CC(O)=C1,3-Methylphenol,-0.68,log(mol/L),-0.68,log(mol/L),-
O=CNC1=CC=CC=C1,formanilide,-0.68,log(mol/L),-0.68,log(mol/L),103-70-8
OC1=CC=CC(C)=C1,m-cresol,-0.68,log(mol/L),-0.68,log(mol/L),108-39-4
CC(C)C(O)CC,2-methyl-3-pentanol,-0.7,log(mol/L),-0.7,log(mol/L),565-67-3
OC1=CC=CC(Cl)=C1,3-Chlorophenol,-0.7,log(mol/L),-0.7,log(mol/L),-
OC1=CC=C(C)C=C1,p-cresol,-0.7,log(mol/L),-0.7,log(mol/L),106-44-5
OC1=CC=CC(Cl)=C1,3-Chlorophenol,-0.7,log(mol/L),-0.7,log(mol/L),108-43-0
OCCOC1=CC=CC=C1,2-phenoxyethanol,-0.7,log(mol/L),-0.7,log(mol/L),-
OC1=CC=C(Cl)C=C1,4-Chlorophenol,-0.7,log(mol/L),-0.7,log(mol/L),-
CCC(O)C(C)C,2-methyl-3-pentanol,-0.7,log(mol/L),-0.7,log(mol/L),-
OC1=CC=C(Cl)C=C1,4-Chlorophenol,-0.7,log(mol/L),-0.7,log(mol/L),106-48-9
OCCOC1=CC=CC=C1,2-phenoxyethanol,-0.71,log(mol/L),-0.71,log(mol/L),122-99-6
S=C1NCCN1,ethylenethiourea,-0.71,log(mol/L),-0.71,log(mol/L),96-45-7
CCC(C)CCO,3-methyl-2-pentanol,-0.71,log(mol/L),-0.71,log(mol/L),-
CC(O)C(C)CC,3-methyl-2-pentanol,-0.72,log(mol/L),-0.72,log(mol/L),565-60-6
CC(C)(O)C(C)(C)C,"2,3,3-trimethyl-2-butanol",-0.72,log(mol/L),-0.72,log(mol/L),594-83-2
CC(C(C)(C)C)=O,"3,3-Dimethyl-2-butanone",-0.72,log(mol/L),-0.72,log(mol/L),-
CCC(C)CCO,3-methyl-2-pentanol,-0.72,log(mol/L),-0.72,log(mol/L),-
NC1=CC=CC=C1O,2-aminophenol,-0.72,log(mol/L),-0.72,log(mol/L),95-55-6
C(C)(=O)OCCC,Propyl acetate,-0.72,log(mol/L),-0.72,log(mol/L),109-60-4
NC1=CC=CC=C1O,o-Aminophenol,-0.72,log(mol/L),-0.72,log(mol/L),-
CCCOC(=O)C,Propyl acetate,-0.72,log(mol/L),-0.72,log(mol/L),-
OCCN(C1=CC=CC=C1)CCO,n-phenyldiethanolamine,-0.73,log(mol/L),-0.73,log(mol/L),120-07-0
CC1=CC=C(C=C1)O,p-cresol,-0.73,log(mol/L),-0.73,log(mol/L),-
OCCC1=CC=CC=C1,2-phenylethanol,-0.74,log(mol/L),-0.74,log(mol/L),60-12-8
OC1=CC=C(N(=O)=O)C=C1,4-nitrophenol,-0.74,log(mol/L),-0.74,log(mol/L),100-02-7
NC(CC(N)C(O)=O)=O,l-asparagine,-0.74,log(mol/L),-0.74,log(mol/L),70-47-3
CC(C)CC(=O)C,4-Methyl-2-pentanone,-0.74,log(mol/L),-0.74,log(mol/L),-
OC1=CC=C(N(=O)=O)C=C1,p-Nitrophenol,-0.74,log(mol/L),-0.74,log(mol/L),-
ONC1=CC=CC=C1,phenylhydroxylamine,-0.74,log(mol/L),-0.74,log(mol/L),100-65-2
O=C(C=C)OCC,ethyl acrylate,-0.74,log(mol/L),-0.74,log(mol/L),140-88-5
OCCC1=CC=CC=C1,2-phenylethanol,22200.0,mg/L,-0.7406,log(mol/L),60-12-8
COC(=O)C1=CC=CC=C1OC2OC(COC3OCC(O)C(O)C3O)C(O)C(O)C2O,Monotropitoside,-0.742,log(mol/L),-0.742,log(mol/L),-
COC(F)(F)C(Cl)Cl,Methoxyflurane,28300.0,mg/L,-0.7656,log(mol/L),76-38-0
CCOCCOCC,"1,2-diethoxyethane",-0.77,log(mol/L),-0.77,log(mol/L),629-14-1
CCOCCOCC,"1,2-diethoxyethane",-0.77,log(mol/L),-0.77,log(mol/L),-
N#CC(C1=CC=CC=C1)OC2C(C(O)C(O)C(O2)COC3C(C(O)C(O)C(O3)CO)O)O,amygdalin,-0.77,log(mol/L),-0.77,log(mol/L),29883-15-6
OCC1OC(OCC2OC(OC(C#N)C3=CC=CC=C3)C(O)C(O)C2O)C(O)C(O)C1O,Amigdalin,-0.77,log(mol/L),-0.77,log(mol/L),-
N1N=NC2=CC=CC=C12,-,4.296665,log(mg/L),-0.7793,log(mol/L),95-14-7
C12=CC=CC=C1NN=N2,1H-Benzotriazole,19800.0,mg/L,-0.7793,log(mol/L),95-14-7
C=12C=CC=CC1NN=N2,benzotriazole,-0.78,log(mol/L),-0.78,log(mol/L),95-14-7
C1=CC=C2NN=NC2=C1,benzotriazole,-0.78,log(mol/L),-0.78,log(mol/L),-
BrC([H])([H])[H],Bromomethane,-0.79,log(mol/L),-0.79,log(mol/L),-
BrC,Bromomethane,-0.79,log(mol/L),-0.79,log(mol/L),-
NC1=CC=C(O)C=C1,p-Aminophenol,-0.8,log(mol/L),-0.8,log(mol/L),-
OC(CC)CCC,3-hexanol,-0.8,log(mol/L),-0.8,log(mol/L),623-37-0
CCCC(O)CC,3-hexanol,-0.8,log(mol/L),-0.8,log(mol/L),-
CC(CCCC)=O,2-Hexanone,-0.8,log(mol/L),-0.8,log(mol/L),591-78-6
O=C1NC(=O)C=CN1C,1-methyluracil,-0.8,log(mol/L),-0.8,log(mol/L),615-77-0
CC(C)CC(O)C,4-methyl-2-pentanol,-0.8,log(mol/L),-0.8,log(mol/L),108-11-2
CCCN(=O)=O,1-nitropropane,-0.8,log(mol/L),-0.8,log(mol/L),-
C=C(C)C(OC)=O,methyl methacrylate,-0.8,log(mol/L),-0.8,log(mol/L),80-62-6
O=N(=O)CCC,1-nitropropane,-0.8,log(mol/L),-0.8,log(mol/L),108-03-2
CCCCC(=O)C,2-Hexanone,-0.8,log(mol/L),-0.8,log(mol/L),-
NC1=CC=C(O)C=C1,4-aminophenol,-0.8,log(mol/L),-0.8,log(mol/L),123-30-8
CC(C)(C)COC(=O)N,tert-amyl carbamate,-0.8,log(mol/L),-0.8,log(mol/L),3124-46-7
CC(C)CC(C)O,4-methyl-2-pentanol,-0.8,log(mol/L),-0.8,log(mol/L),-
CN1C=CC(=O)NC1=O,1-methyluracil,-0.807,log(mol/L),-0.807,log(mol/L),-
O=C(O)C(CC)CC,2-ethylbutyric acid,-0.81,log(mol/L),-0.81,log(mol/L),88-09-5
C(CCC)(=O)OC,methyl butyrate,-0.82,log(mol/L),-0.82,log(mol/L),623-42-7
O=C(OCC)CC(OCC)=O,diethyl malonate,-0.82,log(mol/L),-0.82,log(mol/L),105-53-3
CCCOC(=O)CC,methyl butyrate,-0.82,log(mol/L),-0.82,log(mol/L),-
OC(CCCCC(O)=O)=O,adipic acid,-0.82,log(mol/L),-0.82,log(mol/L),124-04-9
C1=CC=CO1,furan,-0.82,log(mol/L),-0.82,log(mol/L),110-00-9
C=1C=COC1,Furane,-0.82,log(mol/L),-0.82,log(mol/L),-
CCOC(=O)CC(=O)OCC,Malonic acid diethylester,-0.82,log(mol/L),-0.82,log(mol/L),-
C=CCS(SCC=C)=O,allicin,-0.83,log(mol/L),-0.83,log(mol/L),-
O=C1CNC(CN1)=O,"2,5-piperazinedione",-0.83,log(mol/L),-0.83,log(mol/L),106-57-0
C=CCS(SCC=C)=O,allicin,-0.83,log(mol/L),-0.83,log(mol/L),539-86-6
C=CC(CCC)=O,1-hexen-3-one,-0.83,log(mol/L),-0.83,log(mol/L),1629-60-3
CCCC(=O)CC,3-Hexanone,-0.83,log(mol/L),-0.83,log(mol/L),-
O=C(O)C1=CN=CC=C1,nicotinic acid,-0.84,log(mol/L),-0.84,log(mol/L),59-67-6
OC1C(C(C(CO)OC1OC2=CC=CC=C2CO)O)O,salicin,-0.85,log(mol/L),-0.85,log(mol/L),138-52-3
O=C(O)C1=CC=CN=C1,Niacin,-0.85,log(mol/L),-0.85,log(mol/L),-
CCC(O)(CC)CC,3-ethyl-3-pentanol,-0.85,log(mol/L),-0.85,log(mol/L),597-49-9
CCC(O)(CC)CC,3-ethyl-3-pentanol,-0.85,log(mol/L),-0.85,log(mol/L),-
CC1=C(N)C=CC=C1,2-methylaniline,-0.85,log(mol/L),-0.85,log(mol/L),95-53-4
CN(C(OC1=CC(CC(C)(C1)C)=O)=O)C,dimetan,-0.85,log(mol/L),-0.85,log(mol/L),122-15-6
CC(C)C(O)(C)CC,"2,3-dimethyl-3-pentanol",-0.85,log(mol/L),-0.85,log(mol/L),595-41-5
OCC1OC(OC2=CC=CC=C2CO)C(O)C(O)C1O,salicin,-0.85,log(mol/L),-0.85,log(mol/L),-
CCCC1CCCCN1,coniine,-0.85,log(mol/L),-0.85,log(mol/L),-
CN(C)C(=O)OC1=CC(=O)CC(C)(C)C1,dimetan,-0.85,log(mol/L),-0.85,log(mol/L),-
CCCCC=O,Valeraldehyde,-0.85,log(mol/L),-0.85,log(mol/L),-
O1C(C(O)C(O)C(O)C1OC2=C(C=CC=C2)CO)CO,salicin,-0.85,log(mol/L),-0.85,log(mol/L),-
CC1=CC=CC(N)=C1,m-Methylaniline,-0.85,log(mol/L),-0.85,log(mol/L),-
CCOC=C,ethyl vinyl ether,-0.85,log(mol/L),-0.85,log(mol/L),-
CC1=CC(N)=CC=C1,3-methylaniline,-0.85,log(mol/L),-0.85,log(mol/L),108-44-1
CCOC=C,ethyl vinyl ether,-0.85,log(mol/L),-0.85,log(mol/L),109-92-2
CN(N=O)C(N)=O,1-nitroso-1-methylurea,-0.85,log(mol/L),-0.85,log(mol/L),684-93-5
CCCCC=O,pentanal,-0.85,log(mol/L),-0.85,log(mol/L),110-62-3
O=C(C1=CN2C(C)COC3=C(N4CCN(C)CC4)C(F)=CC(C1=O)=C23)O,levofloxacin,>140000.0,?M/L,-0.8539,log(mol/L),-
N1=C2N=CN=CC2=NC=C1C,7-methylpteridine,-0.854,log(mol/L),-0.854,log(mol/L),-
O=CC1=C(O)C=CC=C1,salicylaldehyde,-0.86,log(mol/L),-0.86,log(mol/L),90-02-8
ClC1=NC=2N=CN=CC2N=C1,7-chloropteridine,-0.87,log(mol/L),-0.87,log(mol/L),1125-84-4
ClC1=CN=C2N=CN=CC2=N1,7-chloropteridine,-0.87,log(mol/L),-0.87,log(mol/L),-
CN1C=NC=2N(C)C(=O)N(C)C(=O)C12,Caffeine,-0.876,log(mol/L),-0.876,log(mol/L),-
OC1=CC=CC(Br)=C1,m-Bromophenol,23000.0,mg/L,-0.8763,log(mol/L),591-20-8
CC(=O)C(CCC)C(=O)C,"3-propyl-2,4-pentadione",-0.88,log(mol/L),-0.88,log(mol/L),-
OC1CCCCCC1,Cycloheptanol,-0.88,log(mol/L),-0.88,log(mol/L),-
CN1C(=O)N(C)C=2N=CN(C)C2C1=O,Caffeine,-0.88,log(mol/L),-0.88,log(mol/L),-
CC1CCC(CC1)O,4-methylcyclohexanol,-0.88,log(mol/L),-0.88,log(mol/L),589-91-3
CC(C(C(C)=O)CCC)=O,"3-propyl-2,4-pentadione",-0.88,log(mol/L),-0.88,log(mol/L),1540-35-8
[Na+].FC(F)(C(F)F)C([O-])=O,"Propanoic acid, 2,2,3,3-tetrafluoro-, sodium sal",22000.0,mg/L,-0.8829,log(mol/L),22898-01-7
C(F)(F)C(F)(F)C(=O)O[Na],"Propanoic acid, 2,2,3,3-tetrafluoro-, sodium sal",22000.0,mg/L,-0.8829,log(mol/L),22898-01-7
CC(O)CCCC,2-hexanol,-0.89,log(mol/L),-0.89,log(mol/L),626-93-7
OC(CC1=CC=CC=C1)=O,phenylacetic acid,-0.89,log(mol/L),-0.89,log(mol/L),103-82-2
CC(O)(C)C(C)CC,"2,3-dimethyl-2-pentanol",-0.89,log(mol/L),-0.89,log(mol/L),4911-70-0
ClCBr,bromochloromethane,-0.89,log(mol/L),-0.89,log(mol/L),74-97-5
ClCBr,bromochloromethane,-0.89,log(mol/L),-0.89,log(mol/L),-
CCCCC(C)O,2-hexanol,-0.89,log(mol/L),-0.89,log(mol/L),-
BrCCl,bromochloromethane,-0.89,log(mol/L),-0.89,log(mol/L),-
C,Methane,-0.9,log(mol/L),-0.9,log(mol/L),-
CC(NC(N)=O)=O,1-acetylurea,-0.9,log(mol/L),-0.9,log(mol/L),591-07-1
O1C(CO)CCC1N2C3=NC=NC(O)=C3N=C2,Didanosine,-0.9,log(mol/L),-0.9,log(mol/L),-
NC(C1=CN=CC=N1)=O,2-pyrazinecarboxamide,-0.91,log(mol/L),-0.91,log(mol/L),98-96-4
COC1=NC=2N=CN=CC2N=C1,7-methoxypteridine,-0.91,log(mol/L),-0.91,log(mol/L),204443-27-6
O(C1=NC2=NC=NC=C2N=C1)C,7-methoxypteridine,-0.91,log(mol/L),-0.91,log(mol/L),-
O=C(N)C1=NC=CN=C1,Pyrazinamide,-0.91,log(mol/L),-0.91,log(mol/L),-
COC1=CN=C2N=CN=CC2=N1,7-methoxypteridine,-0.91,log(mol/L),-0.91,log(mol/L),-
CC(C1=CC=CC=C1)O,1-phenylethanol,-0.92,log(mol/L),-0.92,log(mol/L),98-85-1
CC(C)(O)CC(C)C,"2,4-dimethyl-2-pentanol",-0.92,log(mol/L),-0.92,log(mol/L),625-06-9
CC(C)CC(C)(C)O,"2,4-dimethyl-2-pentanol",-0.92,log(mol/L),-0.92,log(mol/L),-
CC(O)C1=CC=CC=C1,1-phenylethanol,-0.92,log(mol/L),-0.92,log(mol/L),-
OC(C(CO)C1=CC=CC=C1)=O,dl-tropic acid,-0.93,log(mol/L),-0.93,log(mol/L),552-63-6
CN(C)C1C2CC3CC4=C(C=CC(O)=C4C(=O)C3=C(O)C2(O)C(=O)C(=C1O)C(N)=O)N(C)C,Minocycline,-0.94,log(mol/L),-0.94,log(mol/L),-
CC1CCCCC1=O,2-methylcyclohexanone,-0.94,log(mol/L),-0.94,log(mol/L),583-60-8
NC(NCC1=CC=CC=C1)=O,benzylurea,-0.95,log(mol/L),-0.95,log(mol/L),538-32-9
CN(C1=CC=CC=C1)C(C)=O,n-methylacetanilide,-0.95,log(mol/L),-0.95,log(mol/L),579-10-2
NC(NCC1=CC=CC=C1)=O,benzylurea,-0.95,log(mol/L),-0.95,log(mol/L),-
OC1=CC=C(C=O)C=C1,p-hydroxybenzaldehyde,-0.96,log(mol/L),-0.96,log(mol/L),-
NC(N(N=O)CC)=O,1-nitroso-1-ethylurea,-0.96,log(mol/L),-0.96,log(mol/L),759-73-9
CC=CCC#N,3-pentenenitrile,-0.96,log(mol/L),-0.96,log(mol/L),16529-66-1
NC(C1=CC=CC=C1)=O,benzamide,-0.96,log(mol/L),-0.96,log(mol/L),55-21-0
OC1=CC=C(C=O)C=C1,p-hydroxybenzaldehyde,-0.96,log(mol/L),-0.96,log(mol/L),123-08-0
NC(C1=CC=CC=C1)=O,benzamide,-0.96,log(mol/L),-0.96,log(mol/L),-
O=C(CCC(OCC)=O)OCC,diethyl succinate,-0.96,log(mol/L),-0.96,log(mol/L),123-25-1
NC1=NC(=O)NC=C1F,Flucytosine,-0.96,log(mol/L),-0.96,log(mol/L),-
O=C1N(C)C2=C(N(C)C=N2)C(N1C)=O,Caffeine,-0.97,log(mol/L),-0.97,log(mol/L),58-08-2
NC1=NC(=O)NC=C1F,Flucytosine,-0.972,log(mol/L),-0.972,log(mol/L),-
CC(NC1=CC=C(N)C=C1)=O,4-aminoacetanilide,-0.98,log(mol/L),-0.98,log(mol/L),122-80-5
CCCC(C)(O)CC,3-methyl-3-hexanol,-0.98,log(mol/L),-0.98,log(mol/L),-
COC1=CC=CC=C1OCC(O)COC(N)=O,Methocarbamol,-0.985,log(mol/L),-0.985,log(mol/L),-
O=C1C=CC(C=C1)=O,"2,5-cyclohexadiene-1,4-dione",-0.99,log(mol/L),-0.99,log(mol/L),106-51-4
O=C(OCC(O)COC1=C(OC)C=CC=C1)N,Methocarbamol,-0.99,log(mol/L),-0.99,log(mol/L),-
CCCCOC,methyl butyl ether,-0.99,log(mol/L),-0.99,log(mol/L),-
CCCCOC,methyl butyl ether,-0.99,log(mol/L),-0.99,log(mol/L),628-28-4
N(=O)(=O)C1=CC=C(C(=C1)Br)O,2-BROMO-4-NITROPHENOL,22000.0,mg/L,-0.996,log(mol/L),5847-59-6
N#CC1=CC=CC=C1,benzonitrile,-1.0,log(mol/L),-1.0,log(mol/L),100-47-0
CI,iodomethane,-1.0,log(mol/L),-1.0,log(mol/L),74-88-4
CCC(C)(O)CCC,3-methyl-3-hexanol,-1.0,log(mol/L),-1.0,log(mol/L),597-96-6
N#CC1=CC=CC=C1,benzonitrile,-1.0,log(mol/L),-1.0,log(mol/L),-
CI,iodomethane,-1.0,log(mol/L),-1.0,log(mol/L),-
OC1=CC=CC(N(=O)=O)=C1,m-Nitrophenol,-1.01,log(mol/L),-1.01,log(mol/L),-
O=COCC(C)C,isobutyl formate,-1.01,log(mol/L),-1.01,log(mol/L),542-55-2
CC(C)COC=O,isobutyl formate,-1.01,log(mol/L),-1.01,log(mol/L),-
CC(C)(C)NCC(O)COC1=CC=CC=2CC(O)C(O)CC12,Nadolol,-1.01,log(mol/L),-1.01,log(mol/L),-
OC1=CC=CC(N(=O)=O)=C1,3-nitrophenol,-1.01,log(mol/L),-1.01,log(mol/L),554-84-7
NC1=NC2=C(N=NN2)C(=O)N1,-,4.167317,log(mg/L),-1.015,log(mol/L),134-58-7
O=C(NC1=CC=C(C=C1)O)C,4-hydroxyacetanilide,-1.03,log(mol/L),-1.03,log(mol/L),103-90-2
CC(NC1=CC=C(O)C=C1)=O,p-Hydroxyacetanilide,-1.03,log(mol/L),-1.03,log(mol/L),-
O=C(NC1=CC=C(O)C=C1)C,Acetaminophen,-1.03,log(mol/L),-1.03,log(mol/L),-
N1C(=O)NC(=O)C(F)=C1,Fluorouracil,-1.03,log(mol/L),-1.03,log(mol/L),-
O1C(N2C=C(C(=O)NC2=O)C)CC(N=[N+]=[N-])C1CO,Zidovudine,-1.03,log(mol/L),-1.03,log(mol/L),-
C12=CC=CC=C1NCC2,indoline,-1.04,log(mol/L),-1.04,log(mol/L),496-15-1
CCC(C)(C)CO,"2,2-dimethyl-1-butanol",-1.04,log(mol/L),-1.04,log(mol/L),1185-33-7
C1=CC=C2NCCC2=C1,indoline,-1.04,log(mol/L),-1.04,log(mol/L),-
CCC(C)(C)CO,"2,2-dimethyl-1-butanol",-1.04,log(mol/L),-1.04,log(mol/L),-
CCCCCC(O)=O,caproic acid,-1.06,log(mol/L),-1.06,log(mol/L),142-62-1
OC1=CC=CC=C1Cl,2-chlorophenol,-1.06,log(mol/L),-1.06,log(mol/L),95-57-8
CC1(CC(C)=CC(=O)C1)C,isophorone,-1.06,log(mol/L),-1.06,log(mol/L),78-59-1
ClCCCl,"1,2-dichloroethane",-1.06,log(mol/L),-1.06,log(mol/L),107-06-2
CC1=CC(=O)CC(C)(C)C1,isophorone,-1.06,log(mol/L),-1.06,log(mol/L),-
OC1=CC=CC=C1Cl,2-chlorophenol,-1.06,log(mol/L),-1.06,log(mol/L),-
ClCCCl,"1,2-dichloroethane",-1.06,log(mol/L),-1.06,log(mol/L),-
ClCC,Chloroethane,-1.06,log(mol/L),-1.06,log(mol/L),-
O=C(NC1=CC=C(C=C1)O)C,Acetaminophen,86329.6,?M/L,-1.064,log(mol/L),-
O=C1NC=C(F)C(N1)=O,5-fluorouracil,-1.07,log(mol/L),-1.07,log(mol/L),51-21-8
FC1=CNC(=O)NC1=O,5-fluorouracil,-1.077,log(mol/L),-1.077,log(mol/L),-
CC(C)(O)CCCC,2-methyl-2-hexanol,-1.08,log(mol/L),-1.08,log(mol/L),625-23-0
CC=C,Propylene,-1.08,log(mol/L),-1.08,log(mol/L),-
CCCCC(C)(C)O,2-methyl-2-hexanol,-1.08,log(mol/L),-1.08,log(mol/L),-
BrC1=CC=C(C=C1)O,4-bromophenol,-1.09,log(mol/L),-1.09,log(mol/L),-
CCBr,bromoethane,-1.09,log(mol/L),-1.09,log(mol/L),74-96-4
BrC1=CC=C(O)C=C1,4-bromophenol,-1.09,log(mol/L),-1.09,log(mol/L),106-41-2
OC1=CC=C(Br)C=C1,4-bromophenol,-1.09,log(mol/L),-1.09,log(mol/L),-
BrCC,bromoethane,-1.09,log(mol/L),-1.09,log(mol/L),-
CCBr,bromoethane,-1.09,log(mol/L),-1.09,log(mol/L),-
OC1=CC=C(Br)C=C1,p-Bromophenol,14000.0,mg/L,-1.092,log(mol/L),106-41-2
C(CCC)CCN,hexylamine,-1.1,log(mol/L),-1.1,log(mol/L),111-26-2
CC(C)OC(C)C,diisopropyl ether,-1.1,log(mol/L),-1.1,log(mol/L),108-20-3
O=C(O)COC1=CC=CC=C1,phenoxyacetic acid,-1.1,log(mol/L),-1.1,log(mol/L),122-59-8
CC(C)OC(C)C,diisopropyl ether,-1.1,log(mol/L),-1.1,log(mol/L),-
N(C(CC1=CC=CC=C1)C)C,Phenpromethamine,-1.1,log(mol/L),-1.1,log(mol/L),-
CCCC(C)CO,2-Methylpentanol,-1.11,log(mol/L),-1.11,log(mol/L),-
COC1=NC=NC=2N=CC=NC12,2-methoxypteridine,-1.11,log(mol/L),-1.11,log(mol/L),-
CC(CO)CCC,2-methyl-1-pentanol,-1.11,log(mol/L),-1.11,log(mol/L),105-30-6
COC1=NC=2N=CC=NC2C=N1,4-methoxypteridine,-1.11,log(mol/L),-1.11,log(mol/L),-
O(C1=NC2=NC=CN=C2C=N1)C,2-methoxypteridine,-1.11,log(mol/L),-1.11,log(mol/L),-
COC=1C=2N=CC=NC2N=CN1,4-methoxypteridine,-1.11,log(mol/L),-1.11,log(mol/L),30564-38-6