SMILES,NAME,Water solubility,UNIT {Water solubility},Solubility_log(mol/L),UNIT {Water solubility}.1,CASRN,MolW(Da),NumHAcceptors,NumHDonors,LogP,Lipinski_rule,Solubility(mol/L)
CC12CCC3C(=CCc4cc(O)ccc43)C1CCC2=O,equilin,-5.282,log(mol/L),-5.282,log(mol/L),-,268.356,2,1,3.7375000000000025,1,5.2239618899911975e-06
CC(=O)OC1(C)CCC2C3CCC4=CC(=O)CCC4(C)C3CCC21C,methyltestosterone acetate,-5.284,log(mol/L),-5.284,log(mol/L),-,344.4950000000001,3,0,4.840100000000005,1,5.199959965335162e-06
CN(C)CCCN1c2ccccc2Sc2ccc(C(F)(F)F)cc21,triflupromazine,-5.3,log(mol/L),-5.3,log(mol/L),146-54-3,352.42500000000007,3,0,5.259800000000004,0,5.011872336272725e-06
CN(C)CCCN1c2ccccc2Sc2ccc(C(F)(F)F)cc21,Trifluopromazine,-5.3,log(mol/L),-5.3,log(mol/L),-,352.42500000000007,3,0,5.259800000000004,0,5.011872336272725e-06
c1ccc2c(c1)Oc1ccccc1O2,dibenzo-p-dioxine,-5.31,log(mol/L),-5.31,log(mol/L),262-12-4,184.194,2,0,3.584600000000002,1,4.897788193684467e-06
CC(=O)c1cc2c(cc1C)C(C)(C)C(C)CC2(C)C,"FRA-002; AHTN(tonalide,tetralide,fixolide)",1.25,mg/L,-5.315,log(mol/L),1506-02-1,258.4049999999999,1,0,4.792620000000005,1,4.841723675840989e-06
CC(=O)c1cc2c(cc1C)C(C)(C)C(C)CC2(C)C,AHTN,1.25,mg/L,-5.315,log(mol/L),1506-02-1,258.4049999999999,1,0,4.792620000000005,1,4.841723675840989e-06
CC(=O)c1cc2c(cc1C)C(C)(C)C(C)CC2(C)C,Tonalid,1.25,mg/L,-5.315,log(mol/L),21145-77-7,258.4049999999999,1,0,4.792620000000005,1,4.841723675840989e-06
CCCCCCCCCCCCCC(=O)O,tetradecanoic acid,-5.33,log(mol/L),-5.33,log(mol/L),544-63-8,228.37599999999995,1,1,4.772100000000004,1,4.677351412871981e-06
CC(=O)OC1(C(C)=O)CCC2C3C=C(C)C4=CC(=O)CCC4(C)C3CCC21C,megestrol acetate,-5.35,log(mol/L),-5.35,log(mol/L),595-33-5,384.51600000000025,4,0,4.575300000000005,1,4.466835921509635e-06
CC(=O)OC1(C(C)=O)CCC2C3C=C(C)C4=CC(=O)CCC4(C)C3CCC21C,megestrol acetate,-5.35,log(mol/L),-5.35,log(mol/L),-,384.51600000000025,4,0,4.575300000000005,1,4.466835921509635e-06
CC(=O)OC1CCC2(C)C(=CCC3C4CCC(=O)C4(C)CCC32)C1,Prasterone acetate,-5.35,log(mol/L),-5.35,log(mol/L),-,330.46800000000013,3,0,4.450000000000005,1,4.466835921509635e-06
O=C(O)c1ccccc1Nc1cccc(C(F)(F)F)c1,flufenamic_acid,4.41611,?M/L,-5.355,log(mol/L),-,281.23299999999995,2,2,4.1472000000000016,1,4.41570447353312e-06
CCN1c2cc(Cl)ccc2NC(=O)c2cccnc21,RTI 24,-5.36,log(mol/L),-5.36,log(mol/L),-,273.723,3,1,3.458700000000001,1,4.365158322401657e-06
CCC(=O)OC1CCC2C3CCC4=CC(=O)CCC4(C)C3CCC12C,testosterone propionate,-5.37,log(mol/L),-5.37,log(mol/L),57-85-2,344.4950000000001,3,0,4.840100000000005,1,4.265795188015926e-06
CCC(=O)OC1CCC2C3CCC4=CC(=O)CCC4(C)C3CCC12C,testosterone propionate,-5.37,log(mol/L),-5.37,log(mol/L),-,344.4950000000001,3,0,4.840100000000005,1,4.265795188015926e-06
CCOP(=S)(OCC)Oc1ccc2c(C)c(Cl)c(=O)oc2c1,coumaphos,-5.38,log(mol/L),-5.38,log(mol/L),56-72-4,362.7710000000001,6,0,4.431120000000004,1,4.168693834703355e-06
CCOP(=S)(OCC)Oc1ccc2oc(=O)c(Cl)c(C)c2c1,coumaphos,-5.382,log(mol/L),-5.382,log(mol/L),-,362.77100000000013,6,0,4.4311200000000035,1,4.1495404263436325e-06
Clc1ccc(CSC(Cn2cncn2)=Nc2ccc(Cl)cc2Cl)cc1,Imibenconazole,1.7,mg/L,-5.384,log(mol/L),86598-92-7,411.7450000000001,5,0,5.901900000000002,0,4.1304750199016105e-06
Clc1ccc(CSC(Cn2cncn2)=Nc2ccc(Cl)cc2Cl)cc1,-,0.2304489,log(mg/L),-5.384,log(mol/L),86598-92-7,411.7450000000001,5,0,5.901900000000002,0,4.1304750199016105e-06
O=C1C2CC=CCC2C(=O)N1SC(Cl)(Cl)C(Cl)Cl,captafol,-5.4,log(mol/L),-5.4,log(mol/L),2939-80-2,349.0659999999999,3,0,3.520900000000002,1,3.981071705534969e-06
CCCCCCCCOC(=O)c1ccc(N)cc1,octyl-4-aminobenzoate,-5.4,log(mol/L),-5.4,log(mol/L),14309-41-2,249.354,3,1,3.786100000000002,1,3.981071705534969e-06
c1ccc2nc(-c3ccc4ccccc4n3)ccc2c1,biquinoline,-5.4,log(mol/L),-5.4,log(mol/L),-,256.308,2,0,4.450000000000003,1,3.981071705534969e-06
c1ccc2nc(-c3ccc4ccccc4n3)ccc2c1,biquinoline,-5.4,log(mol/L),-5.4,log(mol/L),119-91-5,256.308,2,0,4.450000000000003,1,3.981071705534969e-06
O=C1C2CC=CCC2C(=O)N1SC(Cl)(Cl)C(Cl)Cl,captafol,-5.4,log(mol/L),-5.4,log(mol/L),-,349.0659999999999,3,0,3.520900000000002,1,3.981071705534969e-06
CC12CCC3C(CCC4CC5SC5CC43C)C1CCC2O,Epitostanol,-5.41,log(mol/L),-5.41,log(mol/L),-,306.51500000000004,2,1,4.483900000000005,1,3.890451449942805e-06
CC12CCC3C(CCC4CC5SC5CC43C)C1CCC2O,epitiostanol,-5.41,log(mol/L),-5.41,log(mol/L),2363-58-8,306.51500000000004,2,1,4.483900000000005,1,3.890451449942805e-06
CC12CCC3C(CCC4CC5SC5CC43C)C1CCC2O,epitiostanol,-5.41,log(mol/L),-5.41,log(mol/L),-,306.51500000000004,2,1,4.483900000000005,1,3.890451449942805e-06
Clc1c(Cl)c(Cl)c2nccnc2c1Cl,chlorquinox,-5.43,log(mol/L),-5.43,log(mol/L),-,267.93,2,0,4.2434,1,3.7153522909717276e-06
Clc1c(Cl)c(Cl)c2nccnc2c1Cl,chlorquinox,-5.43,log(mol/L),-5.43,log(mol/L),3495-42-9,267.93,2,0,4.2434,1,3.7153522909717276e-06
O=C(O)Cc1ccccc1Nc1c(Cl)cccc1Cl,Diclofenac,3.49648,?M/L,-5.456,log(mol/L),-,296.153,2,2,4.364100000000001,1,3.4994516702835696e-06
OC1C=CC2C1C1(Cl)C(Cl)=C(Cl)C2(Cl)C1(Cl)Cl,1-hydroxychlordene,-5.46,log(mol/L),-5.46,log(mol/L),-,354.875,1,1,3.995,1,3.467368504525317e-06
O=[N+]([O-])c1ccc(Oc2ccc(Cl)cc2Cl)cc1,nitrofen,-5.46,log(mol/L),-5.46,log(mol/L),-,284.098,3,0,4.693900000000002,1,3.467368504525317e-06
O=[N+]([O-])c1ccc(Oc2ccc(Cl)cc2Cl)cc1,nitrofen,-5.46,log(mol/L),-5.46,log(mol/L),1836-75-5,284.098,3,0,4.693900000000002,1,3.467368504525317e-06
OC1C=CC2C1C1(Cl)C(Cl)=C(Cl)C2(Cl)C1(Cl)Cl,1-hydroxychlordene,-5.46,log(mol/L),-5.46,log(mol/L),2597-11-7,354.875,1,1,3.995,1,3.467368504525317e-06
OC1C=CC2C1C1(Cl)C(Cl)=C(Cl)C2(Cl)C1(Cl)Cl,hydroxychlordene,-5.46,log(mol/L),-5.46,log(mol/L),-,354.875,1,1,3.995,1,3.467368504525317e-06
CCN(CC)c1c([N+](=O)[O-])cc(C(F)(F)F)c(N)c1[N+](=O)[O-],dinitramine,-5.47,log(mol/L),-5.47,log(mol/L),-,322.24300000000005,6,1,2.9502000000000006,1,3.3884415613920275e-06
Cc1ccc(N=CN(C)C=Nc2ccc(C)cc2C)c(C)c1,amitraz,-5.47,log(mol/L),-5.47,log(mol/L),33089-61-1,293.41400000000004,2,0,4.871880000000004,1,3.3884415613920275e-06
CCN(CC)c1c([N+](=O)[O-])cc(C(F)(F)F)c(N)c1[N+](=O)[O-],dinitramine,-5.47,log(mol/L),-5.47,log(mol/L),29091-05-2,322.24300000000005,6,1,2.9502000000000006,1,3.3884415613920275e-06
Cc1ccc(N=CN(C)C=Nc2ccc(C)cc2C)c(C)c1,amitraz,-5.47,log(mol/L),-5.47,log(mol/L),-,293.41400000000004,2,0,4.871880000000004,1,3.3884415613920275e-06
Cc1cnc(C(=O)NCCc2ccc(S(=O)(=O)NC(=O)NC3CCCCC3)cc2)cn1,glipizide,3.2497,?M/L,-5.488,log(mol/L),-,445.54500000000024,6,3,2.0781199999999993,1,3.2508729738543405e-06
CCOP(=S)(OCC)Oc1nc(Cl)c(Cl)cc1Cl,chlorpyriphos,-5.49,log(mol/L),-5.49,log(mol/L),2921-88-2,350.591,5,0,4.718100000000002,1,3.235936569296281e-06
C#CC1(O)CCC2C3CCC4=Cc5oncc5CC4(C)C3CCC21C,Danazol,-5.507,log(mol/L),-5.507,log(mol/L),-,337.46300000000014,3,1,4.221000000000004,1,3.1117163371060202e-06
C#CC1(O)CCC2C3CCC4=Cc5oncc5CC4(C)C3CCC21C,Danazol,-5.51,log(mol/L),-5.51,log(mol/L),-,337.46300000000014,3,1,4.221000000000004,1,3.090295432513592e-06
CC(C)(C)CC(=O)OCC(=O)C1(O)CCC2C3CCC4=CC(=O)CCC4(C)C3C(O)CC21C,hydrocortisone tebutate,-5.51,log(mol/L),-5.51,log(mol/L),-,460.6110000000003,6,2,3.7687000000000026,1,3.090295432513592e-06
CC(C)(C)CC(=O)OCC(=O)C1(O)CCC2C3CCC4=CC(=O)CCC4(C)C3C(O)CC21C,hydrocortisone tebutate,-5.51,log(mol/L),-5.51,log(mol/L),508-96-3,460.6110000000003,6,2,3.7687000000000026,1,3.090295432513592e-06
C=CCCCCCCCC,1-Decene,-5.51,log(mol/L),-5.51,log(mol/L),-,140.27,0,0,3.9230000000000027,1,3.090295432513592e-06
Cc1nc(C(F)(F)F)c(C(=O)Nc2c(Br)cc(OC(F)(F)F)cc2Br)s1,Thifluzamide,1.6,mg/L,-5.519,log(mol/L),130000-40-7,528.066,4,1,6.146220000000001,0,3.0269134281013045e-06
CCCCN(CC)c1c([N+](=O)[O-])cc(C(F)(F)F)cc1[N+](=O)[O-],benfluralin,-5.53,log(mol/L),-5.53,log(mol/L),1861-40-1,335.28200000000004,5,0,4.148200000000004,1,2.951209226666384e-06
CCCCN(CC)c1c([N+](=O)[O-])cc(C(F)(F)F)cc1[N+](=O)[O-],benfluralin,-5.53,log(mol/L),-5.53,log(mol/L),-,335.28200000000004,5,0,4.148200000000004,1,2.951209226666384e-06
COc1c(C(C)(C)C)cc([N+](=O)[O-])c(C)c1[N+](=O)[O-],MUSK AMBRETTE; FRA056,0.79,mg/L,-5.531,log(mol/L),83-66-9,268.26899999999995,5,0,3.1175200000000025,1,2.9444216337987632e-06
CCOP(=S)(OCC)SCSP(=S)(OCC)OCC,ethion,-5.54,log(mol/L),-5.54,log(mol/L),-,384.4870000000002,8,0,5.005300000000004,0,2.884031503126606e-06
CCOP(=S)(OCC)SCSP(=S)(OCC)OCC,ethion,-5.54,log(mol/L),-5.54,log(mol/L),563-12-2,384.4870000000002,8,0,5.005300000000004,0,2.884031503126606e-06
COc1ccc2c(c1)c(CC(=O)O)c(C)n2C(=O)C=Cc1ccccc1,cinmetacin,-5.54,log(mol/L),-5.54,log(mol/L),20168-99-4,349.386,4,1,3.939020000000002,1,2.884031503126606e-06
COc1ccc2c(c1)c(CC(=O)O)c(C)n2C(=O)C=Cc1ccccc1,cinmetacin,-5.54,log(mol/L),-5.54,log(mol/L),-,349.386,4,1,3.939020000000002,1,2.884031503126606e-06
Clc1cc(Cl)c(Cl)cc1Cl,"1,2,4,5-Tetrachlorobenzene",-5.56,log(mol/L),-5.56,log(mol/L),-,215.894,0,0,4.3002,1,2.754228703338169e-06
O=c1c2cc(F)ccc2nc(-n2cncn2)n1-c1ccc(Cl)cc1Cl,Fluquinconazole,1.0,mg/L,-5.575,log(mol/L),136426-54-5,376.1780000000001,6,0,3.412300000000001,1,2.6607250597988086e-06
C1CCC([Sn](C2CCCCC2)C2CCCCC2)CC1.O,Cyhexatin,-5.59,log(mol/L),-5.59,log(mol/L),13121-70-5,386.18800000000033,0,0,5.659400000000007,0,2.5703957827688647e-06
Brc1cc(Br)cc(Br)c1,"1,3,5-Tribromobenzene",0.79,mg/L,-5.6,log(mol/L),626-39-1,314.802,0,0,3.974100000000001,1,2.5118864315095823e-06
Brc1cc(Br)cc(Br)c1,"1,3,5-Tribromobenzene",-5.6,log(mol/L),-5.6,log(mol/L),-,314.802,0,0,3.974100000000001,1,2.5118864315095823e-06
CC1CC2C3CC(F)C4=CC(=O)C=CC4(C)C3(F)C(O)CC2(C)C1(O)C(=O)CO,Flumethasone,-5.613,log(mol/L),-5.613,log(mol/L),-,410.4570000000002,5,3,1.8436999999999997,1,2.43781081836875e-06
Brc1ccc(Oc2ccc(Br)cc2)cc1,"4,4'-Dibromodiphenyl ether; BDE-015",0.00241,mmol/L,-5.618,log(mol/L),2050-47-7,328.003,1,0,5.0039000000000025,0,2.4099054286865933e-06
ClC1=C(Cl)C2(Cl)C3CC=CC3C1(Cl)C2(Cl)Cl,chlordene,-5.64,log(mol/L),-5.64,log(mol/L),3734-48-3,338.876,0,0,5.024200000000001,0,2.2908676527677747e-06
CCCCOC(=O)c1ccccc1C(=O)OCc1ccccc1,benzyl butyl phthalate,-5.64,log(mol/L),-5.64,log(mol/L),85-68-7,312.36499999999995,4,0,4.000500000000003,1,2.2908676527677747e-06
N#Cc1c(Cl)c(Cl)c(Cl)c(C#N)c1Cl,chlorothalonil,-5.64,log(mol/L),-5.64,log(mol/L),1897-45-6,265.914,2,0,4.04356,1,2.2908676527677747e-06
ClC1=C(Cl)C2(Cl)C3CC=CC3C1(Cl)C2(Cl)Cl,chlordene,-5.64,log(mol/L),-5.64,log(mol/L),-,338.876,0,0,5.024200000000001,0,2.2908676527677747e-06
N#Cc1c(Cl)c(Cl)c(Cl)c(C#N)c1Cl,chlorothalonil,-5.64,log(mol/L),-5.64,log(mol/L),-,265.914,2,0,4.04356,1,2.2908676527677747e-06
Clc1cc(Cl)c(Cl)c(Cl)c1Cl,pentachlorobenzene,-5.65,log(mol/L),-5.65,log(mol/L),608-93-5,250.339,0,0,4.9536,1,2.2387211385683376e-06
Clc1cc(Cl)c(Cl)c(Cl)c1Cl,pentachlorobenzene,-5.65,log(mol/L),-5.65,log(mol/L),-,250.339,0,0,4.9536,1,2.2387211385683376e-06
CCOC(=O)c1nc(C(Cl)(Cl)Cl)n(-c2ccc(Cl)cc2Cl)n1,Fenchlorazole-ethyl,0.9,mg/L,-5.652,log(mol/L),103112-35-2,403.4800000000001,5,0,4.5775000000000015,1,2.228435149270303e-06
CCOC(=O)c1nc(C(Cl)(Cl)Cl)n(-c2ccc(Cl)cc2Cl)n1,-,-0.04575749,log(mg/L),-5.652,log(mol/L),103112-35-2,403.4800000000001,5,0,4.5775000000000015,1,2.228435149270303e-06
C#CC1(O)CCC2C3CCC4=CC(=O)CCC4(C)C3CCC21C,ethisterone,-5.66,log(mol/L),-5.66,log(mol/L),434-03-7,312.4530000000001,2,1,3.8826000000000036,1,2.1877616239495517e-06
C#CC1(O)CCC2C3CCC4=CC(=O)CCC4(C)C3CCC21C,ethisterone,-5.66,log(mol/L),-5.66,log(mol/L),-,312.4530000000001,2,1,3.8826000000000036,1,2.1877616239495517e-06
NC(=O)c1nc(-c2ccccc2)n(-c2ccc(Cl)c(COCC(F)(F)C(F)(F)F)c2)n1,-,0.0,log(mg/L),-5.663,log(mol/L),119126-15-7,460.79000000000013,5,1,4.400800000000002,1,2.1727011788637434e-06
NC(=O)c1nc(-c2ccccc2)n(-c2ccc(Cl)c(COCC(F)(F)C(F)(F)F)c2)n1,Flupoxam,1.0,mg/L,-5.663,log(mol/L),119126-15-7,460.79000000000013,5,1,4.400800000000002,1,2.1727011788637434e-06
OC(c1ccc(Cl)cc1)(c1ccc(Cl)cc1)C(Cl)(Cl)Cl,Dicofol,-5.666,log(mol/L),-5.666,log(mol/L),-,370.49,1,1,5.599500000000002,0,2.1577444091526647e-06
CCOP(=S)(OCC)Oc1nc(Cl)c(Cl)cc1Cl,chlorpyrifos,-5.67,log(mol/L),-5.67,log(mol/L),-,350.591,5,0,4.718100000000002,1,2.1379620895022326e-06
CCOP(=S)(OCC)Oc1nc(Cl)c(Cl)cc1Cl,chlorpyriphos,-5.67,log(mol/L),-5.67,log(mol/L),2921-88-2,350.591,5,0,4.718100000000002,1,2.1379620895022326e-06
CCCCCCCCCCCCCCCCCC(=O)O,stearic acid,-5.68,log(mol/L),-5.68,log(mol/L),57-11-4,284.4839999999999,1,1,6.332500000000007,0,2.0892961308540407e-06
CCCN(CCC)c1c([N+](=O)[O-])cc(C(F)(F)F)cc1[N+](=O)[O-],trifluralin,-5.68,log(mol/L),-5.68,log(mol/L),-,335.28200000000004,5,0,4.148200000000004,1,2.0892961308540407e-06
CCCN(CCC)c1c([N+](=O)[O-])cc(C(F)(F)F)cc1[N+](=O)[O-],trifluralin,-5.68,log(mol/L),-5.68,log(mol/L),1582-09-8,335.28200000000004,5,0,4.148200000000004,1,2.0892961308540407e-06
CC(C)Oc1cc(-n2nc(C(C)(C)C)oc2=O)c(Cl)cc1Cl,oxadiazon,-5.69,log(mol/L),-5.69,log(mol/L),-,345.226,5,0,4.217000000000004,1,2.0417379446695273e-06
CC(C)Oc1cc(-n2nc(C(C)(C)C)oc2=O)c(Cl)cc1Cl,oxadiazon,-5.69,log(mol/L),-5.69,log(mol/L),19666-30-9,345.226,5,0,4.217000000000004,1,2.0417379446695273e-06
CC(C)Oc1cc(-n2nc(C(C)(C)C)oc2=O)c(Cl)cc1Cl,oxadiazon,-5.696,log(mol/L),-5.696,log(mol/L),-,345.226,5,0,4.217000000000004,1,2.0137242498623893e-06
COP(=S)(OC)Oc1cc(Cl)c(Cl)cc1Cl,ronnel,-5.72,log(mol/L),-5.72,log(mol/L),-,321.549,4,0,4.542900000000002,1,1.9054607179632483e-06
COP(=S)(OC)Oc1cc(Cl)c(Cl)cc1Cl,ronnel,-5.72,log(mol/L),-5.72,log(mol/L),299-84-3,321.549,4,0,4.542900000000002,1,1.9054607179632483e-06
CCOP(=S)(OCC)SCSc1ccc(Cl)cc1,Carbophenthion,-5.736,log(mol/L),-5.736,log(mol/L),-,342.875,5,0,5.420300000000004,0,1.8365383433483474e-06
CCOP(=S)(OCC)SCSc1ccc(Cl)cc1,carbophenothion,-5.74,log(mol/L),-5.74,log(mol/L),786-19-6,342.875,5,0,5.420300000000004,0,1.8197008586099826e-06
CCOP(=S)(CC)Oc1cc(Cl)c(Cl)cc1Cl,Trichloronate,-5.75,log(mol/L),-5.75,log(mol/L),-,333.60400000000004,3,0,5.391500000000002,0,1.778279410038923e-06
CCOP(=S)(CC)Oc1cc(Cl)c(Cl)cc1Cl,Trichloronate,-5.752,log(mol/L),-5.752,log(mol/L),-,333.60400000000004,3,0,5.391500000000002,0,1.770108958317422e-06
Cc1c([N+](=O)[O-])c(C)c([N+](=O)[O-])c(C(C)(C)C)c1[N+](=O)[O-],FRA-044; Musk xylene,0.49,mg/L,-5.783,log(mol/L),81-15-2,297.267,6,0,3.325540000000002,1,1.6481623915255069e-06
Clc1ccc(COC(Cn2ccnc2)c2ccc(Cl)cc2Cl)c(Cl)c1,miconazole,-5.79,log(mol/L),-5.79,log(mol/L),-,416.1350000000001,3,0,6.454800000000002,0,1.6218100973589298e-06
CCN(CC)Cc1cc(Nc2ccnc3cc(Cl)ccc23)ccc1O,amodiaquine,1.61562,?M/L,-5.792,log(mol/L),-,355.8690000000001,4,2,5.179200000000004,0,1.6143585568264869e-06
Clc1cccc(-c2cccc(Cl)c2)c1,"3,3'-pcb",-5.8,log(mol/L),-5.8,log(mol/L),2050-67-1,223.102,0,0,4.660400000000003,1,1.584893192461114e-06
CC(C)N=c1cc2n(-c3ccc(Cl)cc3)c3ccccc3nc-2cc1Nc1ccc(Cl)cc1,Clofazimine,-5.8,log(mol/L),-5.8,log(mol/L),-,473.40700000000015,4,1,7.489800000000005,0,1.584893192461114e-06
Clc1cccc(-c2cccc(Cl)c2)c1,"3,3?-pcb",-5.8,log(mol/L),-5.8,log(mol/L),2050-67-1,223.102,0,0,4.660400000000003,1,1.584893192461114e-06
C#CC1(O)CCC2C3CCC4=CC(=O)CCC4(C)C3CCC21C,ethisterone,-5.8,log(mol/L),-5.8,log(mol/L),-,312.4530000000001,2,1,3.8826000000000036,1,1.584893192461114e-06
O=[N+]([O-])c1c(Cl)c(Cl)c(Cl)c(Cl)c1Cl,quintozene,-5.82,log(mol/L),-5.82,log(mol/L),82-68-8,295.336,2,0,4.8618,1,1.5135612484362072e-06
O=[N+]([O-])c1c(Cl)c(Cl)c(Cl)c(Cl)c1Cl,quintozene,-5.82,log(mol/L),-5.82,log(mol/L),-,295.336,2,0,4.8618,1,1.5135612484362072e-06
CSc1ccc2c(c1)N(CCC1CCCCN1C)c1ccccc1S2,Thioridazine,-5.82,log(mol/L),-5.82,log(mol/L),-,370.587,4,0,5.885600000000005,0,1.5135612484362072e-06
CN(CCO)S(=O)(=O)C(F)(F)C(F)(F)C(F)(F)C(F)(F)C(F)(F)C(F)(F)C(F)(F)C(F)(F)F,-,-0.09,log(mg/L),-5.836,log(mol/L),24448-09-7,557.2220000000001,3,1,4.207200000000002,0,1.4588142602753475e-06
CC(=O)CC(c1ccc(Cl)cc1)c1c(O)c2ccccc2oc1=O,Coumachlor,-5.839,log(mol/L),-5.839,log(mol/L),-,342.7780000000001,4,1,4.263000000000003,1,1.4487718535447602e-06
CCCCCCCCCCCCCCO,1-Tetradecanol,-5.84,log(mol/L),-5.84,log(mol/L),-,214.39299999999994,1,1,4.679800000000005,1,1.445439770745928e-06
Cc1ccc2c(ccc3ccccc32)c1,2-Methylphenanthrene,-5.84,log(mol/L),-5.84,log(mol/L),-,192.261,0,0,4.301420000000003,1,1.445439770745928e-06
Cc1cccc2c1ccc1ccccc12,1-Methylphenanthrene,-5.85,log(mol/L),-5.85,log(mol/L),-,192.261,0,0,4.301420000000003,1,1.4125375446227554e-06
c1ccc(-c2ccc(C(c3ccccc3)n3ccnc3)cc2)cc1,Bifonazole,-5.85,log(mol/L),-5.85,log(mol/L),-,310.40000000000003,2,0,5.187800000000005,0,1.4125375446227554e-06
CN(C)CCC=C1c2ccccc2Sc2ccc(Cl)cc21,chlorprothixene_form_II,1.36105,?M/L,-5.866,log(mol/L),-,315.869,2,0,5.188000000000004,0,1.361444682465951e-06
CCCCCCCCC,Nonane,-5.88,log(mol/L),-5.88,log(mol/L),-,128.259,0,0,3.7569000000000026,1,1.3182567385564074e-06
CCCCCC(=O)OCN1C(=O)NC(c2ccccc2)(c2ccccc2)C1=O,3-Hexanoyloxymethylphenyltoin,-5.886,log(mol/L),-5.886,log(mol/L),-,380.4440000000001,4,1,3.5630000000000024,1,1.30016957803329e-06
Cc1c2ccccc2cc2ccccc12,9-methylanthracene,-5.89,log(mol/L),-5.89,log(mol/L),779-02-2,192.261,0,0,4.301420000000003,1,1.288249551693135e-06
CCOC(=O)C1=C(C)NC(C)=C(C(=O)OC)C1c1cccc(Cl)c1Cl,felodipine,-5.89,log(mol/L),-5.89,log(mol/L),-,384.259,5,1,3.9643000000000033,1,1.288249551693135e-06
Cc1c2ccccc2cc2ccccc12,9-methylanthracene,-5.89,log(mol/L),-5.89,log(mol/L),-,192.261,0,0,4.301420000000003,1,1.288249551693135e-06
O=C(Nc1ccccc1)N(Cc1ccc(Cl)cc1)C1CCCC1,Pencycuron,-5.915,log(mol/L),-5.915,log(mol/L),-,328.84300000000013,1,1,5.3167000000000035,0,1.2161860006463678e-06
O=C1C(O)=C(C2CCC(c3ccc(Cl)cc3)CC2)C(=O)c2ccccc21,"Atovaquone(0,430mg/ml) - neutral",-5.931,log(mol/L),-5.931,log(mol/L),-,366.84400000000016,3,1,5.505100000000004,0,1.1721953655481303e-06
CCOP(=S)(OCC)Oc1cc(Cl)c(Br)cc1Cl,Bromophos ethyl,0.44,mg/L,-5.952,log(mol/L),4824-78-6,394.054,4,0,5.4322000000000035,0,1.1168632477805612e-06
c1cc2c3c(ccc4c3c1CCC4)CCC2,"1,2,3,6,7,8-hexahydropyrene",-5.96,log(mol/L),-5.96,log(mol/L),1732-13-4,208.3039999999999,0,0,3.8172000000000024,1,1.096478196143185e-06
c1cc2c3c(ccc4c3c1CCC4)CCC2,"1,2,3,6,7,8-hexahydropyrene",-5.96,log(mol/L),-5.96,log(mol/L),-,208.3039999999999,0,0,3.8172000000000024,1,1.096478196143185e-06
CCC(C)(C)C(=O)OC1CC(C)C=C2C=CC(C)C(CCC3CC(O)CC(=O)O3)C21,Simvastatin,-6.0,log(mol/L),-6.0,log(mol/L),-,418.57400000000024,5,1,4.585600000000005,1,1e-06
CCC(C)C(=O)OC1CC(C)C=C2C=CC(C)C(CCC3CC(O)CC(=O)O3)C21,Lovastatin,-6.0,log(mol/L),-6.0,log(mol/L),-,404.54700000000025,5,1,4.195500000000004,1,1e-06
c1ccc2c(c1)-c1cccc3cccc-2c13,Fluoranthene,-6.0,log(mol/L),-6.0,log(mol/L),-,202.25599999999997,0,0,4.487200000000002,1,1e-06
CC(CCC(=O)O)C1CCC2C3CCC4CC(O)CCC4(C)C3CCC12C,Lithocholic Acid,-6.0,log(mol/L),-6.0,log(mol/L),-,376.5810000000002,2,2,5.507100000000006,0,1e-06
c1ccc2c(c1)-c1cccc3cccc-2c13,Fluoranthene,-6.0,log(mol/L),-6.0,log(mol/L),206-44-0,202.25599999999997,0,0,4.487200000000002,1,1e-06
CCC(C)C(=O)OC1CC(C)C=C2C=CC(C)C(CCC3CC(O)CC(=O)O3)C21,Lovastatin,-6.005,log(mol/L),-6.005,log(mol/L),-,404.54700000000025,5,1,4.195500000000004,1,9.885530946569391e-07
Clc1cccc(-c2cc(Cl)ccc2Cl)c1,"2,3?,5-pcb",-6.01,log(mol/L),-6.01,log(mol/L),38444-81-4,257.54699999999997,0,0,5.313800000000002,0,9.77237220955811e-07
Clc1cccc(-c2cc(Cl)ccc2Cl)c1,"2,3',5-PCB",-6.01,log(mol/L),-6.01,log(mol/L),-,257.54699999999997,0,0,5.313800000000002,0,9.77237220955811e-07
Cc1ccc(OP(=O)(Oc2cccc(C)c2)Oc2ccccc2C)cc1,tricresyl phosphate,-6.01,log(mol/L),-6.01,log(mol/L),-,368.3690000000001,4,0,6.256760000000005,0,9.77237220955811e-07
Clc1cccc(-c2cc(Cl)ccc2Cl)c1,"2,3',5-PCB",-6.01,log(mol/L),-6.01,log(mol/L),38444-81-4,257.54699999999997,0,0,5.313800000000002,0,9.77237220955811e-07
Clc1cccc(-c2cc(Cl)ccc2Cl)c1,"2,3?,5-PCB",-6.01,log(mol/L),-6.01,log(mol/L),-,257.54699999999997,0,0,5.313800000000002,0,9.77237220955811e-07
O=C(NC(=O)c1c(F)cccc1F)Nc1ccc(Cl)cc1,difluron,-6.02,log(mol/L),-6.02,log(mol/L),35367-38-5,310.687,2,2,3.5801000000000016,1,9.549925860214369e-07
O=C(NC(=O)c1c(F)cccc1F)Nc1ccc(Cl)cc1,difluron,-6.02,log(mol/L),-6.02,log(mol/L),-,310.687,2,2,3.5801000000000016,1,9.549925860214369e-07
Clc1ccc(Cl)c(-c2ccccc2Cl)c1,"2,2',5-pcb",-6.02,log(mol/L),-6.02,log(mol/L),37680-65-2,257.547,0,0,5.313800000000002,0,9.549925860214369e-07