SMILES,NAME,Water solubility,UNIT {Water solubility},Solubility_log(mol/L),UNIT {Water solubility}.1,CASRN,MolW(Da),NumHAcceptors,NumHDonors,LogP,Lipinski_rule,Solubility(mol/L)
NC(=O)NC1NC(=O)NC1=O,allantoin,-1.6,log(mol/L),-1.6,log(mol/L),97-59-6,158.117,3,4,-2.1798,1,0.025118864315095794
c1ccc(C2CO2)cc1,styrene oxide,-1.6,log(mol/L),-1.6,log(mol/L),96-09-3,120.15099999999997,1,0,1.7578999999999998,1,0.025118864315095794
COCC(=O)N(c1c(C)cccc1C)C(C)C(=O)OC,metalaxyl,-1.6,log(mol/L),-1.6,log(mol/L),57837-19-1,279.336,4,0,1.8443400000000003,1,0.025118864315095794
NC(=O)NC1NC(=O)NC1=O,allantoin,-1.6,log(mol/L),-1.6,log(mol/L),-,158.117,3,4,-2.1798,1,0.025118864315095794
CCI,iodoethane,-1.6,log(mol/L),-1.6,log(mol/L),75-03-6,155.966,0,0,1.4413,1,0.025118864315095794
CCCCC(C)(O)CC,3-methyl-3-heptanol,-1.6,log(mol/L),-1.6,log(mol/L),5582-82-1,130.23099999999997,1,1,2.3376,1,0.025118864315095794
NC(Cc1ccc(O)c(O)c1)C(=O)O,levodopa,-1.6,log(mol/L),-1.6,log(mol/L),59-92-7,197.18999999999997,4,4,0.052200000000000135,1,0.025118864315095794
CC(C)CC(C)CO,"2,4-dimethyl-1-pentanol",-1.6,log(mol/L),-1.6,log(mol/L),6305-71-1,116.20399999999998,1,1,1.6609,1,0.025118864315095794
CCI,iodoethane,-1.6,log(mol/L),-1.6,log(mol/L),-,155.966,0,0,1.4413,1,0.025118864315095794
CC(=O)CC(=O)CC(C)C,"6-methyl-2,4-heptadione",-1.6,log(mol/L),-1.6,log(mol/L),-,142.19799999999998,2,0,1.5807,1,0.025118864315095794
c1ccc(C2CO2)cc1,styrene oxide,-1.6,log(mol/L),-1.6,log(mol/L),-,120.15099999999997,1,0,1.7578999999999998,1,0.025118864315095794
CN(C)C(=O)Nc1ccccc1,fenuron,-1.6,log(mol/L),-1.6,log(mol/L),101-42-8,164.208,1,1,1.7801,1,0.025118864315095794
COCC(=O)N(c1c(C)cccc1C)C(C)C(=O)OC,metalaxyl,-1.601,log(mol/L),-1.601,log(mol/L),-,279.336,4,0,1.8443400000000003,1,0.025061092530321138
O=C(O)c1ccccc1C(=O)O,phthalic_acid_form_II,24823.5,?M/L,-1.605,log(mol/L),-,166.13199999999998,2,2,1.083,1,0.024831331052955704
CC(=O)c1ccc(N)cc1,p-aminoacetophenone,-1.61,log(mol/L),-1.61,log(mol/L),99-92-3,135.166,2,1,1.4714,1,0.024547089156850298
CC(=O)Nc1ccc(S(N)(=O)=O)cc1,N-[4-(aminosulfonyl)phenyl]-acetamide,-1.61,log(mol/L),-1.61,log(mol/L),121-61-9,214.24599999999998,3,2,0.29239999999999966,1,0.024547089156850298
COc1ccc(CC2NCC(O)C2OC(C)=O)cc1,anisomycin,-1.61,log(mol/L),-1.61,log(mol/L),22862-76-6,265.30899999999997,5,2,0.5020999999999994,1,0.024547089156850298
COc1ccc(CC2NCC(O)C2OC(C)=O)cc1,anisomycin,-1.61,log(mol/L),-1.61,log(mol/L),-,265.30899999999997,5,2,0.5020999999999994,1,0.024547089156850298
CC(=O)Oc1ccccc1C(=O)O,Acetylsalicylic acid,-1.61,log(mol/L),-1.61,log(mol/L),50-78-2,180.15899999999996,3,1,1.3101,1,0.024547089156850298
CNC(=NCCSCc1nc[nH]c1C)NC#N,Cimetidine,-1.61,log(mol/L),-1.61,log(mol/L),-,252.347,4,3,0.5974,1,0.024547089156850298
CCCCOC(=O)C=Cc1ccccc1,BUTYL CINNAMATE,5000.0,mg/L,-1.611,log(mol/L),538-65-8,204.269,2,0,3.0431000000000017,1,0.024490632418447456
C=CCC1(CC)C(=O)NC(=O)NC1=O,5-Allyl-5-ethylbarbital,-1.614,log(mol/L),-1.614,log(mol/L),-,196.206,3,2,0.3249000000000001,1,0.024322040090738146
FC(F)OC(Cl)C(F)(F)F,Isoflurane,4470.0,mg/L,-1.616,log(mol/L),26675-46-7,184.49099999999996,1,0,2.3528000000000002,1,0.024210290467361777
c1cnc2c(c1)ccc1cccnc12,phenantroline,24100.0,?M/L,-1.618,log(mol/L),-,180.20999999999998,2,0,2.7830000000000004,1,0.024099054286865942
ClCCCCl,"1,3-dichloropropane",-1.62,log(mol/L),-1.62,log(mol/L),-,112.98700000000001,0,0,1.8540999999999999,1,0.023988329190194897
CCCOCCC,dipropyl ether,-1.62,log(mol/L),-1.62,log(mol/L),111-43-3,102.17699999999999,1,0,1.823,1,0.023988329190194897
ClCCCCl,"1,3-dichloropropane",-1.62,log(mol/L),-1.62,log(mol/L),142-28-9,112.98700000000001,0,0,1.8540999999999999,1,0.023988329190194897
C=CCN(CC=C)C(=O)C(Cl)Cl,"n,n-diallyldichloroacetamide",-1.62,log(mol/L),-1.62,log(mol/L),37764-25-3,208.088,1,0,1.9907,1,0.023988329190194897
CCCOCCC,dipropyl ether,-1.62,log(mol/L),-1.62,log(mol/L),-,102.17699999999999,1,0,1.823,1,0.023988329190194897
CNC(=O)ON=C(CSC)C(C)(C)C,thiofanox,-1.62,log(mol/L),-1.62,log(mol/L),39196-18-4,218.32199999999997,4,1,2.1075,1,0.023988329190194897
CC(C)(C)NCC(O)COc1ccccc1C1CCCC1,Penbutolol,-1.62,log(mol/L),-1.62,log(mol/L),-,291.4350000000001,3,2,3.472000000000002,1,0.023988329190194897
CNC(=O)ON=C(CSC)C(C)(C)C,thiofanox,-1.62,log(mol/L),-1.62,log(mol/L),-,218.32199999999997,4,1,2.1075,1,0.023988329190194897
O=Cc1ccc2c(c1)OCO2,piperonal,-1.63,log(mol/L),-1.63,log(mol/L),120-57-0,150.13299999999995,3,0,1.2278,1,0.023442288153199226
O=C1NS(=O)(=O)c2ccccc21,saccharin,-1.63,log(mol/L),-1.63,log(mol/L),-,183.18800000000002,3,1,0.11869999999999997,1,0.023442288153199226
CC(=O)CC(=O)C(C)(C)C,"5,5-dimethyl-2,4-hexadione",-1.63,log(mol/L),-1.63,log(mol/L),-,142.19799999999998,2,0,1.5807,1,0.023442288153199226
O=Cc1ccc2c(c1)OCO2,piperonal,-1.63,log(mol/L),-1.63,log(mol/L),-,150.13299999999995,3,0,1.2278,1,0.023442288153199226
NC(=O)Nc1ccc(Br)cc1,P-BROMOPHENYLUREA,5000.0,mg/L,-1.634,log(mol/L),1967-25-5,215.04999999999998,1,2,1.9397000000000002,1,0.023227367963571076
C=C(Cl)Cl,"1,1-dichloroethylene",-1.64,log(mol/L),-1.64,log(mol/L),75-35-4,96.944,0,0,1.9352,1,0.022908676527677734
C#CCCC,1-pentyne,-1.64,log(mol/L),-1.64,log(mol/L),627-19-0,68.119,0,0,1.4197,1,0.022908676527677734
c1ccccc1,Benzene,-1.64,log(mol/L),-1.64,log(mol/L),71-43-2,78.11399999999999,0,0,1.6866,1,0.022908676527677734
O=C1NS(=O)(=O)c2ccccc21,saccharin,-1.64,log(mol/L),-1.64,log(mol/L),81-07-2,183.18800000000002,3,1,0.11869999999999997,1,0.022908676527677734
CC12CCC(CC1)C(C)(C)O2,eucalyptol,-1.64,log(mol/L),-1.64,log(mol/L),470-82-6,154.253,1,0,2.7441000000000013,1,0.022908676527677734
CCCCC1(CC)C(=O)NC(=O)NC1=O,5-butyl-5-ethylbarbituric acid,-1.64,log(mol/L),-1.64,log(mol/L),77-28-1,212.249,3,2,0.9389999999999998,1,0.022908676527677734
C=C(Cl)Cl,"1,1-dichloroethylene",-1.64,log(mol/L),-1.64,log(mol/L),-,96.944,0,0,1.9352,1,0.022908676527677734
C#CCCC,1-pentyne,-1.64,log(mol/L),-1.64,log(mol/L),-,68.119,0,0,1.4197,1,0.022908676527677734
CC1C(NC(=O)C(=NOC(C)(C)C(=O)O)c2csc(N)n2)C(=O)N1S(=O)(=O)O,Aztreonam,-1.64,log(mol/L),-1.64,log(mol/L),-,435.44000000000017,10,4,-1.1724999999999979,1,0.022908676527677734
CC12CCC(CC1)C(C)(C)O2,eucalyptol,-1.64,log(mol/L),-1.64,log(mol/L),-,154.253,1,0,2.7441000000000013,1,0.022908676527677734
c1ccccc1,Benzene,-1.64,log(mol/L),-1.64,log(mol/L),-,78.11399999999999,0,0,1.6866,1,0.022908676527677734
O=C1NC(=O)C2(CCC2)C(=O)N1,Cyclobutyl-5-spirobarbituric acid,-1.655,log(mol/L),-1.655,log(mol/L),-,168.15200000000002,3,2,-0.4773,1,0.022130947096056376
COC(=O)c1ccccc1C(=O)OC,dimethyl phthalate,-1.66,log(mol/L),-1.66,log(mol/L),131-11-3,194.18599999999995,4,0,1.2597999999999998,1,0.02187761623949553
COC(=O)NS(=O)(=O)c1ccc(N)cc1,asulam,-1.66,log(mol/L),-1.66,log(mol/L),3337-71-1,230.245,5,2,0.3134999999999998,1,0.02187761623949553
COC(=O)c1ccccc1C(=O)OC,dimethyl phthalate,-1.66,log(mol/L),-1.66,log(mol/L),-,194.18599999999995,4,0,1.2597999999999998,1,0.02187761623949553
Nc1ccc(Cl)cc1,4-chloroaniline,-1.66,log(mol/L),-1.66,log(mol/L),106-47-8,127.574,1,1,1.9222,1,0.02187761623949553
O=C1NS(=O)(=O)c2ccccc21,saccharin,-1.66,log(mol/L),-1.66,log(mol/L),81-07-2,183.18800000000002,3,1,0.11869999999999997,1,0.02187761623949553
Nc1ccc(Cl)cc1,p-Chloroaniline,-1.66,log(mol/L),-1.66,log(mol/L),-,127.574,1,1,1.9222,1,0.02187761623949553
CCCCC1(CC)C(=O)NC(=O)NC1=O,Butethal,-1.661,log(mol/L),-1.661,log(mol/L),-,212.249,3,2,0.9389999999999998,1,0.021827299118430014
CCCC(C)(COC(N)=O)COC(N)=O,Meprobamate,-1.67,log(mol/L),-1.67,log(mol/L),57-53-4,218.25299999999996,4,2,0.9834000000000005,1,0.021379620895022326
CC(=O)OC1CCCCC1,-,-1.67,log(mol/L),-1.67,log(mol/L),622-45-7,142.19799999999998,2,0,1.8821999999999999,1,0.021379620895022326
CC(=O)OC1CCCCC1,cyclohexanol acetate,-1.67,log(mol/L),-1.67,log(mol/L),622-45-7,142.19799999999998,2,0,1.8821999999999999,1,0.021379620895022326
BrCCBr,"1,2-dibromoethane",-1.68,log(mol/L),-1.68,log(mol/L),106-93-4,187.862,0,0,1.7762,1,0.020892961308540396
O=C(O)c1cccc([N+](=O)[O-])c1,3-nitrobenzoic acid,-1.68,log(mol/L),-1.68,log(mol/L),121-92-6,167.11999999999998,3,1,1.293,1,0.020892961308540396
O=C(O)CNC(=O)c1ccccc1,hippuric acid,-1.68,log(mol/L),-1.68,log(mol/L),495-69-2,179.175,2,2,0.5009999999999994,1,0.020892961308540396
BrCCBr,"1,2-dibromoethane",-1.68,log(mol/L),-1.68,log(mol/L),-,187.862,0,0,1.7762,1,0.020892961308540396
CC(=O)OCc1ccccc1,Benzyl acetate,3100.0,mg/L,-1.685,log(mol/L),140-11-4,150.177,2,0,1.7496999999999998,1,0.02065380155810529
FC(F)(F)C(Cl)Br,Halothane,4070.0,mg/L,-1.686,log(mol/L),151-67-7,197.381,0,0,2.5084999999999997,1,0.020606299132700005
CN=C(NC#N)NCCSCc1nc[nH]c1C,Cimetidine,20340.2,?M/L,-1.692,log(mol/L),-,252.347,4,3,0.5973999999999997,1,0.02032357010936222
CC(C)N(CCC(C(N)=O)(c1ccccc1)c1ccccn1)C(C)C,Disopyramide,-1.7,log(mol/L),-1.7,log(mol/L),-,339.4830000000001,3,1,3.361900000000002,1,0.0199526231496888
CCN(Cc1ccncc1)C(=O)C(CO)c1ccccc1,Tropicamide,-1.7,log(mol/L),-1.7,log(mol/L),-,284.359,3,1,2.2062,1,0.0199526231496888
CCCCCCC=O,heptanal,-1.7,log(mol/L),-1.7,log(mol/L),111-71-7,114.18799999999999,1,0,2.1557000000000004,1,0.0199526231496888
NCC(CC(=O)O)c1ccc(Cl)cc1,Baclofen,-1.7,log(mol/L),-1.7,log(mol/L),-,213.664,2,2,1.857,1,0.0199526231496888
CCNc1ccccc1,n-ethylaniline,-1.7,log(mol/L),-1.7,log(mol/L),103-69-5,121.18299999999995,1,1,2.1184,1,0.0199526231496888
COc1c(Cl)ccc(Cl)c1C(=O)O,dicamba,-1.7,log(mol/L),-1.7,log(mol/L),1918-00-9,221.039,2,1,2.7002000000000006,1,0.0199526231496888
COc1c(Cl)ccc(Cl)c1C(=O)O,dicamba,-1.7,log(mol/L),-1.7,log(mol/L),-,221.039,2,1,2.7002000000000006,1,0.0199526231496888
CCNc1ccccc1,n-ethylaniline,-1.7,log(mol/L),-1.7,log(mol/L),-,121.18299999999995,1,1,2.1184,1,0.0199526231496888
C=CCC1(C(C)C)C(=O)NC(=O)NC1=O,5-Allyl-5-isopropylbarbital,-1.708,log(mol/L),-1.708,log(mol/L),-,210.23299999999998,3,2,0.5709000000000001,1,0.0195884467350599
CCCC(C)(COC(N)=O)COC(N)=O,Meprobamate,-1.71,log(mol/L),-1.71,log(mol/L),-,218.25299999999996,4,2,0.9834000000000005,1,0.019498445997580455
CCCCC(CC)CN,2-ethylhexylamine,-1.71,log(mol/L),-1.71,log(mol/L),104-75-6,129.24699999999999,1,1,2.1615,1,0.019498445997580455
FC(F)(F)C(Cl)Br,Halothane,-1.71,log(mol/L),-1.71,log(mol/L),-,197.381,0,0,2.5084999999999997,1,0.019498445997580455
FC(F)(F)C(Cl)Br,Halothane,-1.71,log(mol/L),-1.71,log(mol/L),151-67-7,197.381,0,0,2.5084999999999997,1,0.019498445997580455
C=CCC1(C(C)C)C(=O)NC(=O)NC1=O,aprobarbital,-1.71,log(mol/L),-1.71,log(mol/L),77-02-1,210.23299999999998,3,2,0.5709000000000001,1,0.019498445997580455
Oc1ccc(I)cc1,4_iodophenol,19312.0,?M/L,-1.714,log(mol/L),-,220.00900000000001,1,1,1.9968,1,0.01931968317016924
CCN(CC)C(=O)CSc1ccc(Cl)nn1,Azintamide,-1.716,log(mol/L),-1.716,log(mol/L),-,259.762,4,0,2.0904999999999996,1,0.019230917289101587
CCN(CC)CCOC(=O)c1ccc(N)cc1,procaine,19094.0,?M/L,-1.719,log(mol/L),-,236.315,4,1,1.7673999999999999,1,0.019098532585662378
CCCCCC(C)(C)O,2-methyl-2-heptanol,-1.72,log(mol/L),-1.72,log(mol/L),625-25-2,130.231,1,1,2.3376000000000006,1,0.019054607179632473
CCCCC(C)C(C)O,3-methyl-2-heptanol,-1.72,log(mol/L),-1.72,log(mol/L),31367-46-1,130.231,1,1,2.1935000000000007,1,0.019054607179632473
CC(=O)Oc1ccccc1C(=O)O,Acetylsalicylic acid,-1.72,log(mol/L),-1.72,log(mol/L),50-78-2,180.15899999999996,3,1,1.3101,1,0.019054607179632473
CCCCCC(C)(C)O,2-methyl-2-heptanol,-1.72,log(mol/L),-1.72,log(mol/L),-,130.231,1,1,2.3376000000000006,1,0.019054607179632473
CC(=O)Oc1ccccc1C(=O)O,Aspirin,-1.72,log(mol/L),-1.72,log(mol/L),-,180.15899999999996,3,1,1.3101,1,0.019054607179632473
CCN(CC)C(=O)CSc1ccc(Cl)nn1,Azintamide,-1.72,log(mol/L),-1.72,log(mol/L),-,259.762,4,0,2.0904999999999996,1,0.019054607179632473
CCCBr,1-bromopropane,-1.73,log(mol/L),-1.73,log(mol/L),-,122.993,0,0,1.7913000000000001,1,0.018620871366628676
CCCBr,1-bromopropane,-1.73,log(mol/L),-1.73,log(mol/L),106-94-5,122.993,0,0,1.7913000000000001,1,0.018620871366628676
O=C1C=CC(O)(c2cc(O)ccc2O)C=C1,quinhydrone,-1.73,log(mol/L),-1.73,log(mol/L),106-34-3,218.20800000000003,4,3,0.9804999999999997,1,0.018620871366628676
Nc1ncnc2c1ncn2C1OC(CO)C(O)C1O,Adenosine,-1.73,log(mol/L),-1.73,log(mol/L),-,267.245,9,4,-1.9800000000000006,1,0.018620871366628676
ClC(Cl)C(Cl)Cl,"1,1,2,2-Tetrachloroethane",-1.74,log(mol/L),-1.74,log(mol/L),79-34-5,167.85,0,0,2.5938,1,0.018197008586099836
O=[N+]([O-])c1ccccc1O,2-nitrophenol,-1.74,log(mol/L),-1.74,log(mol/L),88-75-5,139.10999999999999,3,1,1.3003999999999998,1,0.018197008586099836
Cc1ccc(S(N)(=O)=O)cc1,4-toluenesulfonamide,-1.74,log(mol/L),-1.74,log(mol/L),70-55-3,171.22100000000003,2,1,0.6424200000000002,1,0.018197008586099836
CC12CCC(CC1)C(C)(C)O2,"1,8-Cineole",-1.74,log(mol/L),-1.74,log(mol/L),-,154.253,1,0,2.7441000000000013,1,0.018197008586099836
O=[N+]([O-])c1ccccc1O,o-Nitrophenol,-1.74,log(mol/L),-1.74,log(mol/L),-,139.10999999999999,3,1,1.3003999999999998,1,0.018197008586099836
ClC(Cl)C(Cl)Cl,"1,1,2,2-Tetrachloroethane",-1.74,log(mol/L),-1.74,log(mol/L),-,167.85,0,0,2.5938,1,0.018197008586099836
Cc1ccc(S(N)(=O)=O)cc1,p-Toluenesulfonamide,-1.74,log(mol/L),-1.74,log(mol/L),-,171.22100000000003,2,1,0.6424200000000002,1,0.018197008586099836
CC1(C)C(=O)NC(=O)NC1=O,"5,5-Dimethylbarbituric acid",-1.742,log(mol/L),-1.742,log(mol/L),-,156.141,3,2,-0.6214000000000002,1,0.018113400926196024
CCCCC(=O)OCC,ethyl valerate,-1.75,log(mol/L),-1.75,log(mol/L),539-82-2,130.18699999999998,2,0,1.7397,1,0.01778279410038923
CCCOC(=O)CCC,Ethyl pentanoate,-1.75,log(mol/L),-1.75,log(mol/L),-,130.18699999999998,2,0,1.7397,1,0.01778279410038923
C=CCl,Chloroethylene,-1.75,log(mol/L),-1.75,log(mol/L),-,62.498999999999995,0,0,1.3687,1,0.01778279410038923
CC(=O)Nc1ccc(Br)cc1C,2-METHYL-4-BROMOACETANILIDE,4000.0,mg/L,-1.756,log(mol/L),24106-05-6,228.08899999999997,1,1,2.7159200000000006,1,0.017538805018417612
CSc1ncc2nccnc2n1,2-methylthiopteridine,-1.76,log(mol/L),-1.76,log(mol/L),16878-77-6,178.22,5,0,1.1416999999999997,1,0.017378008287493755
CCN(CC)CC(=O)Nc1c(C)cccc1C,lidocaine,-1.76,log(mol/L),-1.76,log(mol/L),137-58-6,234.343,2,1,2.5837400000000006,1,0.017378008287493755
NC(=O)c1ccccc1O,salicylamide,-1.76,log(mol/L),-1.76,log(mol/L),65-45-2,137.13799999999998,2,2,0.49110000000000004,1,0.017378008287493755
CSc1ncnc2nccnc12,2-methylthiopteridine,-1.76,log(mol/L),-1.76,log(mol/L),-,178.22000000000003,5,0,1.1417,1,0.017378008287493755
CCN(CC)CC(=O)Nc1c(C)cccc1C,lidocaine,-1.76,log(mol/L),-1.76,log(mol/L),-,234.343,2,1,2.5837400000000006,1,0.017378008287493755
CC=CC=CC(=O)O,sorbic acid,-1.77,log(mol/L),-1.77,log(mol/L),110-44-1,112.12799999999999,1,1,1.2033,1,0.016982436524617443
NC(=S)Nc1ccccc1,1-phenylthiourea,-1.77,log(mol/L),-1.77,log(mol/L),103-85-5,152.22199999999998,1,2,1.3421,1,0.016982436524617443
CC=CC=CC(=O)O,sorbic acid,-1.77,log(mol/L),-1.77,log(mol/L),-,112.12799999999999,1,1,1.2033,1,0.016982436524617443
O=C1CSC(=S)N1,rhodanine,-1.77,log(mol/L),-1.77,log(mol/L),141-84-4,133.197,3,1,0.13430000000000003,1,0.016982436524617443
O=C1CSC(=S)N1,rhodanine,-1.77,log(mol/L),-1.77,log(mol/L),-,133.197,3,1,0.13430000000000003,1,0.016982436524617443
NC(=S)Nc1ccccc1,Phenylthiourea,-1.77,log(mol/L),-1.77,log(mol/L),-,152.22199999999998,1,2,1.3421,1,0.016982436524617443
C=C1c2cccc(O)c2C(O)=C2C(=O)C3(O)C(O)=C(C(N)=O)C(=O)C(N(C)C)C3C(O)C12,Methacycline,-1.77,log(mol/L),-1.77,log(mol/L),-,442.42400000000015,9,6,-0.5944999999999991,0,0.016982436524617443
CC(=O)Nc1ccc(F)cc1,4-fluoroacetanilide,-1.78,log(mol/L),-1.78,log(mol/L),351-83-7,153.156,1,1,1.7840999999999998,1,0.016595869074375606
CCCOC(=O)c1cc(O)c(O)c(O)c1,propyl gallate,-1.78,log(mol/L),-1.78,log(mol/L),121-79-9,212.201,5,3,1.3701999999999999,1,0.016595869074375606
COC(=O)c1ccc(O)cc1,methyl-4-hydroxybenzoate,-1.78,log(mol/L),-1.78,log(mol/L),99-76-3,152.149,3,1,1.1788,1,0.016595869074375606
CC(=O)Nc1ccc(F)cc1,p-Fluoroacetanilide,-1.78,log(mol/L),-1.78,log(mol/L),-,153.156,1,1,1.7840999999999998,1,0.016595869074375606
Oc1c(Cl)cccc1Cl,"2,6-Dichlorophenol",-1.79,log(mol/L),-1.79,log(mol/L),-,163.003,1,1,2.699,1,0.0162181009735893
OC(Cn1cncn1)(Cn1cncn1)c1ccc(F)cc1F,Fluconazole,-1.8,log(mol/L),-1.8,log(mol/L),-,306.276,7,1,0.7357999999999993,1,0.015848931924611134
Fc1ccccc1,fluorobenzene,-1.8,log(mol/L),-1.8,log(mol/L),462-06-6,96.10399999999998,0,0,1.8256999999999999,1,0.015848931924611134
O=[N+]([O-])c1ccccc1,nitrobenzene,-1.8,log(mol/L),-1.8,log(mol/L),98-95-3,123.11099999999996,2,0,1.5948,1,0.015848931924611134
Fc1ccccc1,fluorobenzene,-1.8,log(mol/L),-1.8,log(mol/L),-,96.10399999999998,0,0,1.8256999999999999,1,0.015848931924611134
CNC(=O)Oc1cccc(C)c1,m-tolyl methylcarbamate,-1.8,log(mol/L),-1.8,log(mol/L),1129-41-5,165.19199999999998,2,1,1.71322,1,0.015848931924611134
O=[N+]([O-])c1ccccc1,nitrobenzene,-1.8,log(mol/L),-1.8,log(mol/L),-,123.11099999999996,2,0,1.5948,1,0.015848931924611134
CNC(=O)Oc1ccccc1,Metolcarb,-1.803,log(mol/L),-1.803,log(mol/L),-,151.165,2,1,1.4048,1,0.015739828644662196
CCCC(C)(COC(N)=O)COC(N)=O,Meprobamate,-1.807,log(mol/L),-1.807,log(mol/L),-,218.25299999999996,4,2,0.9834000000000005,1,0.015595525028269538
CCCCCCCO,1-heptanol,-1.81,log(mol/L),-1.81,log(mol/L),-,116.204,1,1,1.9491,1,0.01548816618912481
CCCCCCCO,1-heptanol,-1.81,log(mol/L),-1.81,log(mol/L),111-70-6,116.204,1,1,1.9491,1,0.01548816618912481
CCCCCCCN(CC)CCCC(O)c1ccc(NS(C)(=O)=O)cc1,Ibutilide,-1.81,log(mol/L),-1.81,log(mol/L),-,384.58600000000007,4,2,4.164000000000003,1,0.01548816618912481
O=C(O)c1ccccc1O,Salicylic acid,-1.82,log(mol/L),-1.82,log(mol/L),69-72-7,138.12199999999999,2,2,1.0903999999999998,1,0.01513561248436208
O=C(O)c1ccccc1O,Salicylic_acid,-1.82,log(mol/L),-1.82,log(mol/L),-,138.12199999999999,2,2,1.0903999999999998,1,0.01513561248436208
NC(=O)c1ccccc1O,o-Hydroxybenzamide,-1.82,log(mol/L),-1.82,log(mol/L),-,137.13799999999998,2,2,0.49110000000000004,1,0.01513561248436208
C=CCc1ccc(O)c(OC)c1,eugenol,2460.0,mg/L,-1.824,log(mol/L),97-53-0,164.20399999999995,2,1,2.1292999999999997,1,0.014996848355023733
COC(=O)c1ccc(O)cc1,Methylparaben,-1.827,log(mol/L),-1.827,log(mol/L),-,152.149,3,1,1.1788,1,0.014893610777109155
CCC(=O)c1ccccc1,propiophenone,-1.83,log(mol/L),-1.83,log(mol/L),93-55-0,134.17799999999997,1,0,2.2793,1,0.014791083881682071
CCNC(=O)C(C)OC(=O)Nc1ccccc1,carbetamide,-1.83,log(mol/L),-1.83,log(mol/L),-,236.27100000000002,3,2,1.7596999999999998,1,0.014791083881682071
CCNC(=O)C(C)OC(=O)Nc1ccccc1,carbetamide,-1.83,log(mol/L),-1.83,log(mol/L),16118-49-3,236.27100000000002,3,2,1.7596999999999998,1,0.014791083881682071
CC(=O)N=c1sc(S(N)(=O)=O)nn1C,methazolamide,-1.83,log(mol/L),-1.83,log(mol/L),554-57-4,236.278,6,1,-1.4237999999999997,1,0.014791083881682071
CC(=O)N=c1sc(S(N)(=O)=O)nn1C,methazolamide,-1.83,log(mol/L),-1.83,log(mol/L),-,236.278,6,1,-1.4237999999999997,1,0.014791083881682071
NC(=O)c1ccccc1O,salicylamide,-1.836,log(mol/L),-1.836,log(mol/L),-,137.13799999999998,2,2,0.49110000000000004,1,0.014588142602753481
C=C1CC23CC1(O)CCC2C12C=CC(O)C(C)(C(=O)O1)C2C3C(=O)O,gibberellic acid,-1.84,log(mol/L),-1.84,log(mol/L),77-06-5,346.3790000000001,5,3,1.0271000000000001,1,0.014454397707459272
OCC(O)C1OC2OC(C(Cl)(Cl)Cl)OC2C1O,chloralose,-1.84,log(mol/L),-1.84,log(mol/L),15879-93-3,309.52900000000005,6,3,-0.46290000000000026,1,0.014454397707459272
OCC(O)C1OC2OC(C(Cl)(Cl)Cl)OC2C1O,chloralose,-1.84,log(mol/L),-1.84,log(mol/L),-,309.52900000000005,6,3,-0.46290000000000026,1,0.014454397707459272
CCCCCCCN,heptylamine,-1.85,log(mol/L),-1.85,log(mol/L),111-68-2,115.22000000000001,1,1,1.9155,1,0.01412537544622754
COc1ccccc1,anisole,-1.85,log(mol/L),-1.85,log(mol/L),100-66-3,108.13999999999997,1,0,1.6952,1,0.01412537544622754
CCCCOCCCC,dibutyl ether,-1.85,log(mol/L),-1.85,log(mol/L),142-96-1,130.231,1,0,2.603200000000001,1,0.01412537544622754
ClCCCBr,1-bromo-3-chloropropane,-1.85,log(mol/L),-1.85,log(mol/L),109-70-6,157.438,0,0,2.0102,1,0.01412537544622754
CC12CCC(C1)C(C)(C)C2=O,d-fenchone,-1.85,log(mol/L),-1.85,log(mol/L),4695-62-9,152.237,1,0,2.401700000000001,1,0.01412537544622754
COC(=O)c1ccccc1,methyl benzoate,-1.85,log(mol/L),-1.85,log(mol/L),-,136.14999999999998,2,0,1.4732,1,0.01412537544622754