SMILES,NAME,Water solubility,UNIT {Water solubility},Solubility_log(mol/L),UNIT {Water solubility}.1,CASRN,MolW(Da),NumHAcceptors,NumHDonors,LogP,Lipinski_rule,Solubility(mol/L)
O=C1C=C2CC3(O)COc4c(ccc(O)c4O)C3=C2C=C1O,hematein,-2.7,log(mol/L),-2.7,log(mol/L),475-25-2,300.266,6,4,1.3295999999999997,1,0.001995262314968879
Nc1ccc(S(=O)(=O)Nc2ccccn2)cc1,sulfapyridine,-2.7,log(mol/L),-2.7,log(mol/L),144-83-2,249.29500000000004,4,2,1.4646000000000001,1,0.001995262314968879
CC(Cl)C(C)Cl,"2,3-dichlorobutane",-2.7,log(mol/L),-2.7,log(mol/L),7581-97-7,127.014,0,0,2.2410000000000005,1,0.001995262314968879
Fc1ccccc1Br,o-Fluorobromobenzene,-2.7,log(mol/L),-2.7,log(mol/L),-,175.0,0,0,2.5882000000000005,1,0.001995262314968879
Nc1ccc(-c2ccc(N)cc2)cc1,p-benzidine,-2.7,log(mol/L),-2.7,log(mol/L),92-87-5,184.242,2,2,2.5180000000000007,1,0.001995262314968879
Nc1ccc(-c2ccc(N)cc2)cc1,"p,p'-Biphenyldiamine",-2.7,log(mol/L),-2.7,log(mol/L),-,184.242,2,2,2.5180000000000007,1,0.001995262314968879
CCCCCCC(=O)OCC,ethyl heptylate,-2.71,log(mol/L),-2.71,log(mol/L),106-30-9,158.24099999999999,2,0,2.5199000000000007,1,0.0019498445997580456
Nc1ccc(-c2ccc(N)cc2)cc1,p-benzidine,-2.71,log(mol/L),-2.71,log(mol/L),-,184.242,2,2,2.5180000000000007,1,0.0019498445997580456
CCOc1ccc(C(=O)OCCN(CC)CC)cc1,parethoxycaine,-2.71,log(mol/L),-2.71,log(mol/L),-,265.3529999999999,4,0,2.5839000000000008,1,0.0019498445997580456
Sc1cnc2ncncc2n1,7-mercaptopteridine,-2.71,log(mol/L),-2.71,log(mol/L),-,164.193,5,1,0.7084999999999999,1,0.0019498445997580456
CCOc1ccc(C(=O)OCCN(CC)CC)cc1,parethoxycaine,-2.71,log(mol/L),-2.71,log(mol/L),94-23-5,265.3529999999999,4,0,2.5839000000000008,1,0.0019498445997580456
CCCCNC(=O)NS(=O)(=O)c1ccc(N)cc1,carbutamide,-2.71,log(mol/L),-2.71,log(mol/L),-,271.342,4,3,1.0568,1,0.0019498445997580456
S=c1cnc2cncnc2[nH]1,7-mercaptopteridine,-2.71,log(mol/L),-2.71,log(mol/L),81451-15-2,164.19299999999998,4,1,1.08239,1,0.0019498445997580456
CCCCOC(=O)c1ccc(O)cc1,butyl-p-hydroxybenzoate,-2.72,log(mol/L),-2.72,log(mol/L),94-26-8,194.23,3,1,2.349100000000001,1,0.0019054607179632462
CCCCCCl,1-Chloropentane,-2.73,log(mol/L),-2.73,log(mol/L),-,106.596,0,0,2.415400000000001,1,0.0018620871366628676
C=CC(C)C,3-Methyl-1-Butene,-2.73,log(mol/L),-2.73,log(mol/L),-,70.13499999999999,0,0,1.8284,1,0.0018620871366628676
O=C(O)c1ccccc1I,o-iodobenzoic acid,-2.73,log(mol/L),-2.73,log(mol/L),88-67-5,248.01899999999995,1,1,1.9894,1,0.0018620871366628676
CCc1cccc(C)c1N(C(=O)CCl)C(C)COC,metolachlor,-2.73,log(mol/L),-2.73,log(mol/L),51218-45-2,283.799,2,0,3.1641200000000014,1,0.0018620871366628676
CCCCCCl,1-Chloropentane,-2.73,log(mol/L),-2.73,log(mol/L),543-59-9,106.596,0,0,2.415400000000001,1,0.0018620871366628676
C=C(C)CC,2-Methyl-1-Butene,-2.73,log(mol/L),-2.73,log(mol/L),-,70.13499999999999,0,0,1.9725,1,0.0018620871366628676
CCc1cccc(C)c1N(C(=O)CCl)C(C)COC,metolachlor,-2.73,log(mol/L),-2.73,log(mol/L),-,283.799,2,0,3.1641200000000014,1,0.0018620871366628676
Cc1cc(C)nc(NS(=O)(=O)c2ccc(N)cc2)n1,Sulfamethazine,1851.55,?M/L,-2.732,log(mol/L),-,278.337,5,2,1.4764399999999998,1,0.0018535316234148105
FC(F)(Cl)C(F)(F)Cl,"1,2-dichlorotetrafluoroethane",-2.74,log(mol/L),-2.74,log(mol/L),-,170.92000000000002,0,0,2.6495999999999995,1,0.0018197008586099826
CN1C(=O)NC(=O)C(C)(C2=CCCCC2)C1=O,hexabarital,-2.74,log(mol/L),-2.74,log(mol/L),56-29-1,236.27099999999993,3,1,1.2012999999999998,1,0.0018197008586099826
CCCCNC(=O)OCC(C)(CCC)COC(N)=O,Tybamate,-2.74,log(mol/L),-2.74,log(mol/L),-,274.36099999999993,4,2,2.4144,1,0.0018197008586099826
CCCCCCC(=O)OCC,Ethyl heptanoate,-2.74,log(mol/L),-2.74,log(mol/L),-,158.24099999999999,2,0,2.5199000000000007,1,0.0018197008586099826
Cn1cnc2c1c(=O)[nH]c(=O)n2C,theobromine,-2.74,log(mol/L),-2.74,log(mol/L),-,180.16699999999997,5,1,-1.0397,1,0.0018197008586099826
CCCCCCCC(C)O,2-Nonanol,-2.74,log(mol/L),-2.74,log(mol/L),-,144.258,1,1,2.727700000000002,1,0.0018197008586099826
Nc1c(Cl)c(Cl)nc(C(=O)O)c1Cl,picloram,-2.75,log(mol/L),-2.75,log(mol/L),-,241.46099999999998,3,2,2.3222,1,0.0017782794100389228
CCCCCCCCC(=O)O,pelargonic acid,-2.75,log(mol/L),-2.75,log(mol/L),112-05-0,158.241,1,1,2.821600000000001,1,0.0017782794100389228
CCCCCCCCN,n-octylamine,-2.75,log(mol/L),-2.75,log(mol/L),111-86-4,129.247,1,1,2.3056,1,0.0017782794100389228
CCn1cc(C(=O)O)c(=O)c2cc(F)c(N3CCNCC3)cc21,Norfloxacin,1752.0,?M/L,-2.756,log(mol/L),-,319.336,5,2,1.2683,1,0.0017538805018417621
C=CC1CN2CCC1CC2C(O)c1ccnc2ccc(OC)cc12,Quinine,-2.76,log(mol/L),-2.76,log(mol/L),130-95-0,324.4240000000001,4,1,3.1732000000000014,1,0.0017378008287493763
C=C(F)C(F)(F)F,"2,3,3,3-Tetrafluoroprop- 1-ene",198.2,mg/L,-2.76,log(mol/L),-,114.04100000000001,0,0,2.0319,1,0.0017378008287493763
CCCCN1CCCCC1C(=O)Nc1c(C)cccc1C,bupivacaine,-2.76,log(mol/L),-2.76,log(mol/L),-,288.43500000000006,2,1,3.8965400000000026,1,0.0017378008287493763
CC(C)C1(C(C)C)C(=O)NC(=O)NC1=O,"5,5-Diisopropylbarbital",-2.766,log(mol/L),-2.766,log(mol/L),-,212.24899999999997,3,2,0.6507999999999999,1,0.0017139573075084253
CCc1ccccc1,ethylbenzene,-2.77,log(mol/L),-2.77,log(mol/L),100-41-4,106.16799999999996,0,0,2.2490000000000006,1,0.0016982436524617442
CCC1(C2=CC3CCC(C2)C3)C(=O)NC(=O)NC1=O,reposal,-2.77,log(mol/L),-2.77,log(mol/L),-,262.30899999999997,3,2,1.4951999999999996,1,0.0016982436524617442
CCc1ccccc1,ethylbenzene,-2.77,log(mol/L),-2.77,log(mol/L),-,106.16799999999996,0,0,2.2490000000000006,1,0.0016982436524617442
Cc1ccc(C)cc1,p-xylene,-2.77,log(mol/L),-2.77,log(mol/L),-,106.16799999999999,0,0,2.30344,1,0.0016982436524617442
S=c1[nH]cnc2nccnc12,4-mercaptopteridine,-2.77,log(mol/L),-2.77,log(mol/L),65882-61-3,164.193,4,1,1.0823899999999997,1,0.0016982436524617442
Cc1ccc(C)cc1,p-xylene,-2.77,log(mol/L),-2.77,log(mol/L),106-42-3,106.16799999999999,0,0,2.30344,1,0.0016982436524617442
Sc1ncc2nccnc2n1,4-mercaptopteridine,-2.77,log(mol/L),-2.77,log(mol/L),-,164.19299999999998,5,1,0.7084999999999999,1,0.0016982436524617442
COc1cc(NC(C)CCCN)c2ncccc2c1,Primaquine,-2.77,log(mol/L),-2.77,log(mol/L),-,259.35299999999995,4,2,2.782700000000001,1,0.0016982436524617442
O=[N+]([O-])c1cccc(Cl)c1,m-Chloronitrobenzene,-2.77,log(mol/L),-2.77,log(mol/L),-,157.55599999999998,2,0,2.2482000000000006,1,0.0016982436524617442
Ic1ccccc1,iodobenzene,-2.78,log(mol/L),-2.78,log(mol/L),591-50-4,204.01000000000002,0,0,2.2912,1,0.0016595869074375613
c1ccc2c(c1)cnc1ccccc12,phenanthridine,-2.78,log(mol/L),-2.78,log(mol/L),229-87-8,179.22199999999998,1,0,3.388000000000001,1,0.0016595869074375613
COc1cccc(Cl)c1,3-Chloroanisole,-2.78,log(mol/L),-2.78,log(mol/L),-,142.58499999999998,1,0,2.3486000000000002,1,0.0016595869074375613
O=C1c2ccccc2C(=O)c2c1ccc(O)c2O,alizarin,-2.78,log(mol/L),-2.78,log(mol/L),72-48-0,240.21399999999997,4,2,1.8732000000000006,1,0.0016595869074375613
c1ccc2c(c1)cnc1ccccc12,phenanthridine,-2.78,log(mol/L),-2.78,log(mol/L),-,179.22199999999998,1,0,3.388000000000001,1,0.0016595869074375613
COc1ccc(Cl)cc1,4-Chloroanisole,-2.78,log(mol/L),-2.78,log(mol/L),-,142.585,1,0,2.3486000000000002,1,0.0016595869074375613
C=CC1CN2CCC1CC2C(O)c1ccnc2ccc(OC)cc12,Quinine,1635.1,?M/L,-2.786,log(mol/L),-,324.4240000000001,4,1,3.1732000000000014,1,0.0016368165214278084
FC(F)=C(F)F,Tetrafluoroethylene,159.0,mg/L,-2.799,log(mol/L),116-14-3,100.01400000000001,0,0,1.991,1,0.001588546748597779
Cc1cc(O)cc(C)c1Cl,"4-chloro-3,5-dimethylphenol",-2.8,log(mol/L),-2.8,log(mol/L),88-04-0,156.61199999999997,1,1,2.662440000000001,1,0.001584893192461114
O=C(O)c1ccc([N+](=O)[O-])cc1,4-nitrobenzoic acid,-2.8,log(mol/L),-2.8,log(mol/L),62-23-7,167.12,3,1,1.293,1,0.001584893192461114
CNC(=O)Oc1cccc2c1OC(C)(C)C2,Carbofuran,-2.8,log(mol/L),-2.8,log(mol/L),-,221.25599999999994,3,1,2.1183,1,0.001584893192461114
Cc1cc(O)cc(C)c1Cl,"phenol,4-chloro-3,5-dimethyl-",-2.8,log(mol/L),-2.8,log(mol/L),-,156.61199999999997,1,1,2.662440000000001,1,0.001584893192461114
Cc1ccccc1C,o-Xylene,-2.8,log(mol/L),-2.8,log(mol/L),95-47-6,106.16799999999999,0,0,2.30344,1,0.001584893192461114
Cc1ccccc1C,o-Xylene,-2.8,log(mol/L),-2.8,log(mol/L),-,106.16799999999999,0,0,2.30344,1,0.001584893192461114
CC(=O)Oc1ccc2c3c1OC1C(OC(C)=O)C=CC4C(C2)N(C)CCC341,Heroin,-2.8,log(mol/L),-2.8,log(mol/L),-,369.41700000000014,6,0,1.9886,1,0.001584893192461114
FC(F)=C(F)F,-,2.2,log(mg/L),-2.8,log(mol/L),116-14-3,100.01400000000001,0,0,1.991,1,0.001584893192461114
Cc1cc(C)nc(NS(=O)(=O)c2ccc(N)cc2)n1,Sulfamethazine,-2.81,log(mol/L),-2.81,log(mol/L),-,278.337,5,2,1.4764399999999998,1,0.0015488166189124811
O=C(Cn1ccnc1[N+](=O)[O-])NCc1ccccc1,benznidazole,-2.81,log(mol/L),-2.81,log(mol/L),22994-85-0,260.253,5,1,1.1077,1,0.0015488166189124811
C=CC1CN2CCC1CC2C(O)c1ccnc2ccc(OC)cc12,quinidine,-2.81,log(mol/L),-2.81,log(mol/L),-,324.4240000000001,4,1,3.1732000000000014,1,0.0015488166189124811
C=CC1CN2CCC1CC2C(O)c1ccnc2ccc(OC)cc12,Quinine,-2.81,log(mol/L),-2.81,log(mol/L),-,324.4240000000001,4,1,3.1732000000000014,1,0.0015488166189124811
O=C(Cn1ccnc1[N+](=O)[O-])NCc1ccccc1,benznidazole,-2.81,log(mol/L),-2.81,log(mol/L),-,260.253,5,1,1.1077,1,0.0015488166189124811
C=CC1CN2CCC1CC2C(O)c1ccnc2ccc(OC)cc12,Quinine,500.0,mg/L,-2.812,log(mol/L),130-95-0,324.4240000000001,4,1,3.1732000000000014,1,0.00154170045294956
Cc1cccc(C)c1,m-xylene,-2.82,log(mol/L),-2.82,log(mol/L),108-38-3,106.16799999999999,0,0,2.30344,1,0.0015135612484362087
CCC1C2CC3C4N(C)c5ccccc5C45CC(C2C5O)N3C1O,ajmaline,-2.82,log(mol/L),-2.82,log(mol/L),-,326.44,4,2,1.5545,1,0.0015135612484362087
Cn1c(=O)on(-c2ccc(Cl)c(Cl)c2)c1=O,methazole,-2.82,log(mol/L),-2.82,log(mol/L),-,261.064,5,0,1.4359999999999997,1,0.0015135612484362087
Cc1ccc([N+](=O)[O-])cc1[N+](=O)[O-],"2,4-Dinitrotoluene",-2.82,log(mol/L),-2.82,log(mol/L),-,182.135,4,0,1.81142,1,0.0015135612484362087
Cc1cccc(C)c1,m-xylene,-2.82,log(mol/L),-2.82,log(mol/L),-,106.16799999999999,0,0,2.30344,1,0.0015135612484362087
Cn1c(=O)on(-c2ccc(Cl)c(Cl)c2)c1=O,methazole,-2.82,log(mol/L),-2.82,log(mol/L),20354-26-1,261.064,5,0,1.4359999999999997,1,0.0015135612484362087
Cc1cnc(NS(=O)(=O)c2ccc(N)cc2)nc1,sulfaperine,-2.82,log(mol/L),-2.82,log(mol/L),599-88-2,264.31,5,2,1.1680199999999998,1,0.0015135612484362087
Nc1ccc(S(=O)(=O)c2ccc(N)cc2)cc1,dapsone,-2.82,log(mol/L),-2.82,log(mol/L),-,248.30700000000002,4,2,1.6838000000000002,1,0.0015135612484362087
CC(C)(c1ccc(O)cc1)c1ccc(O)cc1,diphenylolpropane,-2.82,log(mol/L),-2.82,log(mol/L),80-05-7,228.291,2,2,3.423700000000002,1,0.0015135612484362087
C=Cc1ccccc1,styrene,-2.82,log(mol/L),-2.82,log(mol/L),100-42-5,104.15199999999997,0,0,2.3296,1,0.0015135612484362087
C=Cc1ccccc1,styrene,-2.82,log(mol/L),-2.82,log(mol/L),-,104.15199999999997,0,0,2.3296,1,0.0015135612484362087
Nc1ccc(S(=O)(=O)c2ccc(N)cc2)cc1,dapsone,-2.82,log(mol/L),-2.82,log(mol/L),80-08-0,248.30700000000002,4,2,1.6838000000000002,1,0.0015135612484362087
C=CCc1ccccc1OCC(O)CNC(C)C,Alprenolol,-2.82,log(mol/L),-2.82,log(mol/L),-,249.35399999999996,3,2,2.1528,1,0.0015135612484362087
O=c1[nH]c2cc(Cl)ccc2o1,Chlorzoxazone,-2.83,log(mol/L),-2.83,log(mol/L),-,169.56699999999998,2,1,1.7745,1,0.0014791083881682072
O=c1[nH]c2cc(Cl)ccc2o1,Chlorzoxazone,-2.831,log(mol/L),-2.831,log(mol/L),-,169.56699999999998,2,1,1.7745,1,0.0014757065332758946
O=c1oc2ccccc2c(O)c1C1CCCc2ccccc21,Coumatetralyl,-2.84,log(mol/L),-2.84,log(mol/L),-,292.33399999999995,3,1,3.9668000000000028,1,0.001445439770745928
CC(=O)Nc1ccc(Cl)cc1,4-chloroacetanilide,-2.84,log(mol/L),-2.84,log(mol/L),539-03-7,169.611,1,1,2.2984,1,0.001445439770745928
CC(=O)Nc1ccc(Cl)cc1,p-Chloroacetanilide,-2.843,log(mol/L),-2.843,log(mol/L),-,169.611,1,1,2.2984,1,0.001435489433353656
O=C(c1ccccc1)C(O)c1ccccc1,benzoin,-2.85,log(mol/L),-2.85,log(mol/L),579-44-2,212.248,2,1,2.602900000000001,1,0.001412537544622754
CCC1(C2=CCCCCC2)C(=O)NC(=O)NC1=O,heptabarbital,-2.85,log(mol/L),-2.85,log(mol/L),-,250.29799999999997,3,2,1.6392999999999995,1,0.001412537544622754
Cc1ccnc(NS(=O)(=O)c2ccc(N)cc2)n1,sulfamerazine,-2.85,log(mol/L),-2.85,log(mol/L),127-79-7,264.31,5,2,1.16802,1,0.001412537544622754
O=C(c1ccccc1)C(O)c1ccccc1,benzoin,-2.85,log(mol/L),-2.85,log(mol/L),-,212.248,2,1,2.602900000000001,1,0.001412537544622754
Cc1cc(Cl)ccc1N=CN(C)C,chlordimenform,-2.86,log(mol/L),-2.86,log(mol/L),6164-98-3,196.68099999999998,1,0,2.8698200000000016,1,0.0013803842646028853
COc1cc(Cc2cnc(N)nc2N)cc(OC)c1OC,Trimethoprim,-2.86,log(mol/L),-2.86,log(mol/L),738-70-5,290.32300000000004,7,2,1.2575999999999998,1,0.0013803842646028853
NC(Cc1cc(I)c(O)c(I)c1)C(=O)O,"3,5-diiodotyrosine",-2.86,log(mol/L),-2.86,log(mol/L),66-02-4,432.98300000000006,3,3,1.5557999999999998,1,0.0013803842646028853
COc1cc(Cc2cnc(N)nc2N)cc(OC)c1OC,Trimethoprim,-2.86,log(mol/L),-2.86,log(mol/L),-,290.32300000000004,7,2,1.2575999999999998,1,0.0013803842646028853
CCN1C(=O)c2cccnc2N(CC)c2ncccc21,-,-2.86,log(mol/L),-2.86,log(mol/L),-,268.32,4,0,2.614700000000001,1,0.0013803842646028853
Cc1cc(Cl)ccc1N=CN(C)C,chlordimeform,-2.86,log(mol/L),-2.86,log(mol/L),-,196.68099999999998,1,0,2.8698200000000016,1,0.0013803842646028853
CCOC(=O)CSc1nc(C(C)(C)C)nn1C(=O)N(C)C,Triazamate,433.0,mg/L,-2.861,log(mol/L),112143-82-5,314.41100000000006,7,0,1.7605,1,0.001377209468893946
CCOC(=O)CSc1nc(C(C)(C)C)nn1C(=O)N(C)C,-,2.636488,log(mg/L),-2.861,log(mol/L),112143-82-5,314.41100000000006,7,0,1.7605,1,0.001377209468893946
CNC(=O)Oc1ccccc1C(C)C,Isoprocarb,-2.863,log(mol/L),-2.863,log(mol/L),-,193.24599999999998,2,1,2.528200000000001,1,0.0013708817661648536
N=C(N)NC(=O)c1nc(Cl)c(N)nc1N,Amiloride,-2.87,log(mol/L),-2.87,log(mol/L),-,229.63099999999997,6,5,-1.0823299999999998,1,0.0013489628825916532
CC1c2cccc(O)c2C(O)=C2C(=O)C3(O)C(O)=C(C(N)=O)C(=O)C(N(C)C)C3C(O)C21,Doxycycline,-2.87,log(mol/L),-2.87,log(mol/L),564-25-0,444.44000000000017,9,6,-0.5041999999999991,0,0.0013489628825916532
Nc1cnn(-c2ccccc2)c(=O)c1Cl,pyrazon,-2.87,log(mol/L),-2.87,log(mol/L),1698-60-8,221.647,4,1,1.4681,1,0.0013489628825916532
CC1c2cccc(O)c2C(=O)C2=C(O)C3(O)C(=O)C(C(N)=O)=C(O)C(N(C)C)C3C(O)C21,Doxycycline,-2.87,log(mol/L),-2.87,log(mol/L),564-25-0,444.44000000000017,9,6,-0.3475999999999985,0,0.0013489628825916532
Nc1cnn(-c2ccccc2)c(=O)c1Cl,pyrazon,-2.878,log(mol/L),-2.878,log(mol/L),-,221.647,4,1,1.4681,1,0.0013243415351946643
CNc1ccccc1C(=O)O,n-methylanthranilic acid,-2.88,log(mol/L),-2.88,log(mol/L),119-68-6,151.165,2,2,1.4264999999999999,1,0.0013182567385564075
CCN1CCCC1CNC(=O)c1cc(S(N)(=O)=O)ccc1OC,sulpiride,-2.88,log(mol/L),-2.88,log(mol/L),-,341.4330000000001,5,2,0.5567000000000012,1,0.0013182567385564075
CN(C)C1C(=O)C(C(N)=O)=C(O)C2(O)C(=O)C3=C(O)c4c(O)ccc(Cl)c4C(C)(O)C3CC12,chlortetracycline,-2.88,log(mol/L),-2.88,log(mol/L),-,478.8850000000002,9,6,0.2824000000000005,0,0.0013182567385564075
CN(C)C1C(O)=C(C(N)=O)C(=O)C2(O)C(O)=C3C(=O)c4c(O)ccc(Cl)c4C(C)(O)C3CC12,chlortetracycline,-2.88,log(mol/L),-2.88,log(mol/L),-,478.8850000000002,9,6,0.4390000000000007,0,0.0013182567385564075
CN(C)C1C(O)=C(C(N)=O)C(=O)C2(O)C(O)=C3C(=O)c4c(O)ccc(Cl)c4C(C)(O)C3CC12,chlortetracycline,-2.88,log(mol/L),-2.88,log(mol/L),57-62-5,478.8850000000002,9,6,0.4390000000000007,0,0.0013182567385564075
CN(C)C(=O)Nc1ccc(Cl)cc1,monuron,-2.89,log(mol/L),-2.89,log(mol/L),150-68-5,198.653,1,1,2.4335000000000004,1,0.0012882495516931337
CN(C)C(=O)Nc1ccc(Cl)cc1,monuron,-2.89,log(mol/L),-2.89,log(mol/L),-,198.653,1,1,2.4335000000000004,1,0.0012882495516931337
CC(C)CCBr,1-bromo-3-methylbutane,-2.89,log(mol/L),-2.89,log(mol/L),-,151.047,0,0,2.4274000000000004,1,0.0012882495516931337
CC(C)CCBr,1-bromo-3-methylbutane,-2.89,log(mol/L),-2.89,log(mol/L),107-82-4,151.047,0,0,2.4274000000000004,1,0.0012882495516931337
CCC1C2CC3C4N(C)c5ccccc5C45CC(C2C5O)N3C1O,ajmaline,-2.89,log(mol/L),-2.89,log(mol/L),-,326.44,4,2,1.5545,1,0.0012882495516931337
O=C(C1CCCCC1)N1CC(=O)N2CCc3ccccc3C2C1,Praziquantel,-2.89,log(mol/L),-2.89,log(mol/L),-,312.41300000000007,2,0,2.5349000000000004,1,0.0012882495516931337
CCCCOC(=O)c1ccc(O)cc1,Butylparaben,-2.89,log(mol/L),-2.89,log(mol/L),-,194.23,3,1,2.349100000000001,1,0.0012882495516931337
O=[N+]([O-])c1cc([N+](=O)[O-])cc([N+](=O)[O-])c1,"1,3,5-Trinitrobenzene",-2.89,log(mol/L),-2.89,log(mol/L),-,213.105,6,0,1.4111999999999998,1,0.0012882495516931337
CON(C)C(=O)Nc1ccc(Br)cc1,Metobromuron,330.0,mg/L,-2.895,log(mol/L),3060-89-7,259.10299999999995,2,1,2.4742000000000006,1,0.0012735030810166615
C=CCN1CCC23c4c5ccc(O)c4OC2C(=O)CCC3(O)C1C5,Naloxone,1265.36,?M/L,-2.898,log(mol/L),-,327.3800000000001,5,2,1.3014,1,0.0012647363474711508
CN1CC2CC1CN2c1cc2c(cc1F)c(=O)c(C(=O)O)cn2C1CC1,danofloxacin,1260.0,?M/L,-2.9,log(mol/L),-,357.3850000000001,5,1,2.0664,1,0.0012589254117941675
COc1cc2c(cc1OC)C13CCN4CC5=CCOC6CC(=O)N2C1C6C5CC43,brucine,-2.9,log(mol/L),-2.9,log(mol/L),-,394.4710000000001,5,0,2.1097,1,0.0012589254117941675
O=C1OC(c2ccc(O)cc2)(c2ccc(O)cc2)c2ccccc21,phenolphthalein,-2.9,log(mol/L),-2.9,log(mol/L),77-09-8,318.32800000000003,4,2,3.560100000000002,1,0.0012589254117941675
O=C1OC(c2ccc(O)cc2)(c2ccc(O)cc2)c2ccccc21,phenolphthalein,-2.9,log(mol/L),-2.9,log(mol/L),-,318.32800000000003,4,2,3.560100000000002,1,0.0012589254117941675
CCCCCC1C(=O)CCC1CC(=O)OC,"Cyclopentaneacetic acid, 3-oxo-2-pentyl-, methyl",280.0,mg/L,-2.908,log(mol/L),24851-98-7,226.31599999999995,3,0,2.725100000000001,1,0.0012359474334445108
Cc1noc(NS(=O)(=O)c2ccc(N)cc2)c1C,sulfisoxazole,-2.91,log(mol/L),-2.91,log(mol/L),127-69-5,267.31,5,2,1.67444,1,0.0012302687708123812
c1ccc(NNc2ccccc2)cc1,hydrazobenzene,-2.92,log(mol/L),-2.92,log(mol/L),-,184.24200000000002,2,2,3.1256000000000013,1,0.001202264434617413
C=CCc1ccc(OC)cc1,estragole,-2.92,log(mol/L),-2.92,log(mol/L),140-67-0,148.20499999999998,1,0,2.4237,1,0.001202264434617413
Oc1cccc2c(O)cccc12,"naphthalene-1,5-diol",-2.92,log(mol/L),-2.92,log(mol/L),83-56-7,160.172,2,2,2.2509999999999994,1,0.001202264434617413
Cc1ccccc1-n1c(C)nc2ccccc2c1=O,Methaqualone,-2.92,log(mol/L),-2.92,log(mol/L),-,250.30100000000002,3,0,3.0025400000000015,1,0.001202264434617413
c1ccc(NNc2ccccc2)cc1,hydrazobenzene,-2.92,log(mol/L),-2.92,log(mol/L),122-66-7,184.24200000000002,2,2,3.1256000000000013,1,0.001202264434617413
NC(=O)c1ccccc1C(N)=O,phthalamide,-2.92,log(mol/L),-2.92,log(mol/L),88-96-0,164.16399999999996,2,2,-0.11559999999999981,1,0.001202264434617413
O=[N+]([O-])c1ccc(Cl)cc1,p-Chloronitrobenzene,-2.92,log(mol/L),-2.92,log(mol/L),-,157.55599999999998,2,0,2.2481999999999998,1,0.001202264434617413
C=CCc1ccc(OC)cc1,estragole,-2.92,log(mol/L),-2.92,log(mol/L),-,148.20499999999998,1,0,2.4237,1,0.001202264434617413
CCCCOC(=O)c1ccc(N)cc1,Butamben,-2.92,log(mol/L),-2.92,log(mol/L),-,193.24599999999998,3,1,2.2257,1,0.001202264434617413
Cc1ccccc1-n1c(C)nc2ccccc2c1=O,Methaqualone,-2.925,log(mol/L),-2.925,log(mol/L),-,250.30100000000002,3,0,3.0025400000000015,1,0.001188502227437019
CN(C)C1C(O)=C(C(N)=O)C(=O)C2(O)C(O)=C3C(=O)c4c(O)cccc4C(C)(O)C3CC12,tetracycline,1185.68,?M/L,-2.926,log(mol/L),-,444.44000000000017,9,6,-0.21439999999999837,0,0.0011857687481671595
COCCCNc1nc(NC(C)C)nc(SC)n1,Methoproptryne,-2.928,log(mol/L),-2.928,log(mol/L),-,271.39,7,2,1.8621999999999999,1,0.0011803206356517297
CN(C)C(=O)Nc1cccc(OC(=O)NC(C)(C)C)c1,karbutilate,-2.93,log(mol/L),-2.93,log(mol/L),4849-32-5,279.34,3,2,2.6670000000000007,1,0.001174897554939529
COc1cc(O)c2c(=O)c3cc(O)ccc3oc2c1,gentisin,-2.93,log(mol/L),-2.93,log(mol/L),437-50-3,258.229,5,2,2.3659999999999997,1,0.001174897554939529
CN(C)C(=O)Nc1cccc(OC(=O)NC(C)(C)C)c1,karbutilate,-2.93,log(mol/L),-2.93,log(mol/L),-,279.34,3,2,2.6670000000000007,1,0.001174897554939529
CC1OC(OC2C(O)C(O)C(O)C(O)C2O)C(N)CC1N=C(N)C(=O)O,KASUGAMYCIN,-2.93,log(mol/L),-2.93,log(mol/L),-,379.3660000000002,10,8,-4.537699999999994,0,0.001174897554939529
O=C1NC(=O)C2C=CC=CC12,phthalamide,-2.932,log(mol/L),-2.932,log(mol/L),-,149.14899999999997,2,1,0.0011999999999998678,1,0.001169499391019871
CC(=O)OCC1=C(C(=O)O)N2C(=O)C(NC(=O)Cc3cccs3)C2SC1,Cephalothin,1153.54,?M/L,-2.938,log(mol/L),-,396.4460000000001,7,2,0.5923000000000007,1,0.0011534532578210918
CCCCCCCCCC(C)O,2-Undecanol,-2.94,log(mol/L),-2.94,log(mol/L),-,172.312,1,1,3.5079000000000025,1,0.0011481536214968829