SMILES,NAME,Water solubility,UNIT {Water solubility},Solubility_log(mol/L),UNIT {Water solubility}.1,CASRN
NS(=O)(C1=CC=C(C=C1)NC(C)=O)=O,N-[4-(aminosulfonyl)phenyl]-acetamide,-1.61,log(mol/L),-1.61,log(mol/L),121-61-9
OC1C(OC(C)=O)C(NC1)CC2=CC=C(OC)C=C2,anisomycin,-1.61,log(mol/L),-1.61,log(mol/L),22862-76-6
COC1=CC=C(CC2NCC(O)C2OC(C)=O)C=C1,anisomycin,-1.61,log(mol/L),-1.61,log(mol/L),-
O=C(C)OC1=C(C(O)=O)C=CC=C1,Acetylsalicylic acid,-1.61,log(mol/L),-1.61,log(mol/L),50-78-2
CNC(NC#N)=NCCSCC1=C(C)NC=N1,Cimetidine,-1.61,log(mol/L),-1.61,log(mol/L),-
CCCCOC(=O)C=CC1=CC=CC=C1,BUTYL CINNAMATE,5000.0,mg/L,-1.611,log(mol/L),538-65-8
O=C1NC(=O)NC(=O)C1(CC)CC=C,5-Allyl-5-ethylbarbital,-1.614,log(mol/L),-1.614,log(mol/L),-
FC(F)OC(Cl)C(F)(F)F,Isoflurane,4470.0,mg/L,-1.616,log(mol/L),26675-46-7
C12=C(C=CC=3C=CC=NC13)C=CC=N2,phenantroline,24100.0,?M/L,-1.618,log(mol/L),-
ClCCCCl,"1,3-dichloropropane",-1.62,log(mol/L),-1.62,log(mol/L),-
CCCOCCC,dipropyl ether,-1.62,log(mol/L),-1.62,log(mol/L),111-43-3
ClCCCCl,"1,3-dichloropropane",-1.62,log(mol/L),-1.62,log(mol/L),142-28-9
O=C(N(CC=C)CC=C)C(Cl)Cl,"n,n-diallyldichloroacetamide",-1.62,log(mol/L),-1.62,log(mol/L),37764-25-3
CCCOCCC,dipropyl ether,-1.62,log(mol/L),-1.62,log(mol/L),-
CNC(ON=C(C(C)(C)C)CSC)=O,thiofanox,-1.62,log(mol/L),-1.62,log(mol/L),39196-18-4
OC(CNC(C)(C)C)COC1=C(C2CCCC2)C=CC=C1,Penbutolol,-1.62,log(mol/L),-1.62,log(mol/L),-
CNC(=O)ON=C(CSC)C(C)(C)C,thiofanox,-1.62,log(mol/L),-1.62,log(mol/L),-
O=CC1=CC=2OCOC2C=C1,piperonal,-1.63,log(mol/L),-1.63,log(mol/L),120-57-0
O=C1NS(=O)(=O)C2=CC=CC=C12,saccharin,-1.63,log(mol/L),-1.63,log(mol/L),-
CC(CC(C(C)(C)C)=O)=O,"5,5-dimethyl-2,4-hexadione",-1.63,log(mol/L),-1.63,log(mol/L),-
O=CC1=CC=C2OCOC2=C1,piperonal,-1.63,log(mol/L),-1.63,log(mol/L),-
NC(=O)NC1=CC=C(Br)C=C1,P-BROMOPHENYLUREA,5000.0,mg/L,-1.634,log(mol/L),1967-25-5
C=C(Cl)Cl,"1,1-dichloroethylene",-1.64,log(mol/L),-1.64,log(mol/L),75-35-4
C#CCCC,1-pentyne,-1.64,log(mol/L),-1.64,log(mol/L),627-19-0
C1=CC=CC=C1,Benzene,-1.64,log(mol/L),-1.64,log(mol/L),71-43-2
O=S1(C2=CC=CC=C2C(=O)N1)=O,saccharin,-1.64,log(mol/L),-1.64,log(mol/L),81-07-2
CC12CCC(CC1)C(O2)(C)C,eucalyptol,-1.64,log(mol/L),-1.64,log(mol/L),470-82-6
O=C1NC(C(C(N1)=O)(CCCC)CC)=O,5-butyl-5-ethylbarbituric acid,-1.64,log(mol/L),-1.64,log(mol/L),77-28-1
ClC(=C)Cl,"1,1-dichloroethylene",-1.64,log(mol/L),-1.64,log(mol/L),-
CCCC#C,1-pentyne,-1.64,log(mol/L),-1.64,log(mol/L),-
S(O[H])(=O)(=O)N1C(C(N(C(=O)C(=NOC(C([H])([H])[H])(C([H])([H])[H])C(O[H])=O)C=2N=C(SC2[H])N([H])[H])[H])(C1=O)[H])(C([H])([H])[H])[H],Aztreonam,-1.64,log(mol/L),-1.64,log(mol/L),-
CC12CCC(CC1)C(C)(C)O2,eucalyptol,-1.64,log(mol/L),-1.64,log(mol/L),-
C1=CC=CC=C1,Benzene,-1.64,log(mol/L),-1.64,log(mol/L),-
C#CCCC,1-pentyne,-1.64,log(mol/L),-1.64,log(mol/L),-
O=C1NC(=O)C2(CCC2)C(=O)N1,Cyclobutyl-5-spirobarbituric acid,-1.655,log(mol/L),-1.655,log(mol/L),-
O=C(OC)C1=CC=CC=C1C(OC)=O,dimethyl phthalate,-1.66,log(mol/L),-1.66,log(mol/L),131-11-3
O=C(OC)NS(C1=CC=C(N)C=C1)(=O)=O,asulam,-1.66,log(mol/L),-1.66,log(mol/L),3337-71-1
COC(=O)C1=CC=CC=C1C(=O)OC,dimethyl phthalate,-1.66,log(mol/L),-1.66,log(mol/L),-
ClC1=CC=C(N)C=C1,4-chloroaniline,-1.66,log(mol/L),-1.66,log(mol/L),106-47-8
C1=CC=C2C(=C1)C(=O)NS2(=O)=O,saccharin,-1.66,log(mol/L),-1.66,log(mol/L),81-07-2
NC1=CC=C(Cl)C=C1,p-Chloroaniline,-1.66,log(mol/L),-1.66,log(mol/L),-
CCCCC1(CC)C(=O)NC(=O)NC1=O,Butethal,-1.661,log(mol/L),-1.661,log(mol/L),-
CC(COC(N)=O)(CCC)COC(N)=O,Meprobamate,-1.67,log(mol/L),-1.67,log(mol/L),57-53-4
CC(OC1CCCCC1)=O,-,-1.67,log(mol/L),-1.67,log(mol/L),622-45-7
CC(OC1CCCCC1)=O,cyclohexanol acetate,-1.67,log(mol/L),-1.67,log(mol/L),622-45-7
BrCCBr,"1,2-dibromoethane",-1.68,log(mol/L),-1.68,log(mol/L),106-93-4
O=N(=O)C1=CC(C(O)=O)=CC=C1,3-nitrobenzoic acid,-1.68,log(mol/L),-1.68,log(mol/L),121-92-6
O=C(C1=CC=CC=C1)NCC(O)=O,hippuric acid,-1.68,log(mol/L),-1.68,log(mol/L),495-69-2
BrCCBr,"1,2-dibromoethane",-1.68,log(mol/L),-1.68,log(mol/L),-
O=C(OCC1=CC=CC=C1)C,Benzyl acetate,3100.0,mg/L,-1.685,log(mol/L),140-11-4
FC(F)(F)C(Cl)Br,Halothane,4070.0,mg/L,-1.686,log(mol/L),151-67-7
CC1=C(N=CN1)CSCCNC(=NC)NC#N,Cimetidine,20340.2,?M/L,-1.692,log(mol/L),-
N1=CC=CC=C1C(C2=CC=CC=C2)(C(=O)N)CCN(C(C)C)C(C)C,Disopyramide,-1.7,log(mol/L),-1.7,log(mol/L),-
N1=CC=C(CN(CC)C(=O)C(C2=CC=CC=C2)CO)C=C1,Tropicamide,-1.7,log(mol/L),-1.7,log(mol/L),-
CCCCCCC=O,heptanal,-1.7,log(mol/L),-1.7,log(mol/L),111-71-7
C1=CC(Cl)=CC=C1C(CN)CC(=O)O,Baclofen,-1.7,log(mol/L),-1.7,log(mol/L),-
CCNC1=CC=CC=C1,n-ethylaniline,-1.7,log(mol/L),-1.7,log(mol/L),103-69-5
O=C(O)C1=C(OC)C(Cl)=CC=C1Cl,dicamba,-1.7,log(mol/L),-1.7,log(mol/L),1918-00-9
ClC1=C(C(=C(C=C1)Cl)C(=O)O)OC,dicamba,-1.7,log(mol/L),-1.7,log(mol/L),-
CCNC1=CC=CC=C1,n-ethylaniline,-1.7,log(mol/L),-1.7,log(mol/L),-
O=C1NC(=O)NC(=O)C1(C(C)C)CC=C,5-Allyl-5-isopropylbarbital,-1.708,log(mol/L),-1.708,log(mol/L),-
O=C(OCC(CCC)(C)COC(=O)N)N,Meprobamate,-1.71,log(mol/L),-1.71,log(mol/L),-
NCC(CC)CCCC,2-ethylhexylamine,-1.71,log(mol/L),-1.71,log(mol/L),104-75-6
BrC(Cl)C(F)(F)F,Halothane,-1.71,log(mol/L),-1.71,log(mol/L),-
FC(F)(F)C(Cl)Br,Halothane,-1.71,log(mol/L),-1.71,log(mol/L),151-67-7
O=C1NC(C(C(N1)=O)(C(C)C)CC=C)=O,aprobarbital,-1.71,log(mol/L),-1.71,log(mol/L),77-02-1
FC(F)(F)C(Cl)Br,Halothane,-1.71,log(mol/L),-1.71,log(mol/L),-
C1=CC(=CC=C1O)I,4_iodophenol,19312.0,?M/L,-1.714,log(mol/L),-
CCN(CC)C(=O)CSC1=CC=C(Cl)N=N1,Azintamide,-1.716,log(mol/L),-1.716,log(mol/L),-
NC1=CC=C(C(OCCN(CC)CC)=O)C=C1,procaine,19094.0,?M/L,-1.719,log(mol/L),-
CC(O)(C)CCCCC,2-methyl-2-heptanol,-1.72,log(mol/L),-1.72,log(mol/L),625-25-2
CC(O)C(C)CCCC,3-methyl-2-heptanol,-1.72,log(mol/L),-1.72,log(mol/L),31367-46-1
O=C(OC1=C(C=CC=C1)C(=O)O)C,Acetylsalicylic acid,-1.72,log(mol/L),-1.72,log(mol/L),50-78-2
CCCCCC(C)(C)O,2-methyl-2-heptanol,-1.72,log(mol/L),-1.72,log(mol/L),-
O=C(OC1=C(C=CC=C1)C(=O)O)C,Aspirin,-1.72,log(mol/L),-1.72,log(mol/L),-
N1=NC(Cl)=CC=C1SCC(=O)N(CC)CC,Azintamide,-1.72,log(mol/L),-1.72,log(mol/L),-
C(CBr)C,1-bromopropane,-1.73,log(mol/L),-1.73,log(mol/L),-
BrCCC,1-bromopropane,-1.73,log(mol/L),-1.73,log(mol/L),-
BrCCC,1-bromopropane,-1.73,log(mol/L),-1.73,log(mol/L),106-94-5
O=C1C=CC(C2=CC(=CC=C2O)O)(C=C1)O,quinhydrone,-1.73,log(mol/L),-1.73,log(mol/L),106-34-3
N1=CN=C2N(C3OC(CO)C(O)C3O)C=NC2=C1N,Adenosine,-1.73,log(mol/L),-1.73,log(mol/L),-
ClC(Cl)C(Cl)Cl,"1,1,2,2-Tetrachloroethane",-1.74,log(mol/L),-1.74,log(mol/L),79-34-5
OC1=CC=CC=C1N(=O)=O,2-nitrophenol,-1.74,log(mol/L),-1.74,log(mol/L),88-75-5
NS(=O)(C1=CC=C(C)C=C1)=O,4-toluenesulfonamide,-1.74,log(mol/L),-1.74,log(mol/L),70-55-3
CC12CCC(CC1)C(C)(C)O2,"1,8-Cineole",-1.74,log(mol/L),-1.74,log(mol/L),-
OC1=CC=CC=C1N(=O)=O,o-Nitrophenol,-1.74,log(mol/L),-1.74,log(mol/L),-
ClC(Cl)C(Cl)Cl,"1,1,2,2-Tetrachloroethane",-1.74,log(mol/L),-1.74,log(mol/L),-
CC1=CC=C(C=C1)S(=O)(=O)N,p-Toluenesulfonamide,-1.74,log(mol/L),-1.74,log(mol/L),-
O=C1NC(=O)NC(=O)C1(C)C,"5,5-Dimethylbarbituric acid",-1.742,log(mol/L),-1.742,log(mol/L),-
CCCCC(OCC)=O,ethyl valerate,-1.75,log(mol/L),-1.75,log(mol/L),539-82-2
CCCOC(=O)CCC,Ethyl pentanoate,-1.75,log(mol/L),-1.75,log(mol/L),-
ClC=C,Chloroethylene,-1.75,log(mol/L),-1.75,log(mol/L),-
CC(=O)NC1=C(C)C=C(Br)C=C1,2-METHYL-4-BROMOACETANILIDE,4000.0,mg/L,-1.756,log(mol/L),24106-05-6
CSC1=NC=C2N=CC=NC2=N1,2-methylthiopteridine,-1.76,log(mol/L),-1.76,log(mol/L),16878-77-6
CC1=C(NC(CN(CC)CC)=O)C(C)=CC=C1,lidocaine,-1.76,log(mol/L),-1.76,log(mol/L),137-58-6
NC(C1=CC=CC=C1O)=O,salicylamide,-1.76,log(mol/L),-1.76,log(mol/L),65-45-2
CSC1=NC=NC=2N=CC=NC12,2-methylthiopteridine,-1.76,log(mol/L),-1.76,log(mol/L),-
O=C(NC1=C(C=CC=C1C)C)CN(CC)CC,lidocaine,-1.76,log(mol/L),-1.76,log(mol/L),-
CC=CC=CC(O)=O,sorbic acid,-1.77,log(mol/L),-1.77,log(mol/L),110-44-1
NC(NC1=CC=CC=C1)=S,1-phenylthiourea,-1.77,log(mol/L),-1.77,log(mol/L),103-85-5
O=C(O)C=CC=CC,sorbic acid,-1.77,log(mol/L),-1.77,log(mol/L),-
O=C1CSC(N1)=S,rhodanine,-1.77,log(mol/L),-1.77,log(mol/L),141-84-4
C1SC(=S)NC1=O,rhodanine,-1.77,log(mol/L),-1.77,log(mol/L),-
NC(NC1=CC=CC=C1)=S,Phenylthiourea,-1.77,log(mol/L),-1.77,log(mol/L),-
OC12C(C(O)C3C(C1=O)=C(O)C4=C(C3=C)C=CC=C4O)C(N(C)C)C(=O)C(=C2O)C(=O)N,Methacycline,-1.77,log(mol/L),-1.77,log(mol/L),-
CC(NC1=CC=C(C=C1)F)=O,4-fluoroacetanilide,-1.78,log(mol/L),-1.78,log(mol/L),351-83-7
O=C(OCCC)C1=CC(O)=C(O)C(O)=C1,propyl gallate,-1.78,log(mol/L),-1.78,log(mol/L),121-79-9
OC1=CC=C(C(OC)=O)C=C1,methyl-4-hydroxybenzoate,-1.78,log(mol/L),-1.78,log(mol/L),99-76-3
CC(=O)NC1=CC=C(F)C=C1,p-Fluoroacetanilide,-1.78,log(mol/L),-1.78,log(mol/L),-
OC1=C(Cl)C=CC=C1Cl,"2,6-Dichlorophenol",-1.79,log(mol/L),-1.79,log(mol/L),-
ClC1=C(C(=CC=C1)Cl)O,"2,6-Dichlorophenol",-1.79,log(mol/L),-1.79,log(mol/L),-
FC1=C(C(O)(CN2N=CN=C2)CN3N=CN=C3)C=CC(F)=C1,Fluconazole,-1.8,log(mol/L),-1.8,log(mol/L),-
FC1=CC=CC=C1,fluorobenzene,-1.8,log(mol/L),-1.8,log(mol/L),462-06-6
O=N(=O)C1=CC=CC=C1,nitrobenzene,-1.8,log(mol/L),-1.8,log(mol/L),98-95-3
FC1=CC=CC=C1,fluorobenzene,-1.8,log(mol/L),-1.8,log(mol/L),-
O=C(NC)OC1=CC(C)=CC=C1,m-tolyl methylcarbamate,-1.8,log(mol/L),-1.8,log(mol/L),1129-41-5
O=N(=O)C1=CC=CC=C1,nitrobenzene,-1.8,log(mol/L),-1.8,log(mol/L),-
OC(CN1C=NC=N1)(CN2C=NC=N2)C3=CC=C(F)C=C3F,Fluconazole,-1.8,log(mol/L),-1.8,log(mol/L),-
C1=CC=CC=C1OC(=O)NC,Metolcarb,-1.803,log(mol/L),-1.803,log(mol/L),-
CCCC(C)(COC(N)=O)COC(N)=O,Meprobamate,-1.807,log(mol/L),-1.807,log(mol/L),-
CCCCCCCO,1-heptanol,-1.81,log(mol/L),-1.81,log(mol/L),-
CCCCCCCO,1-heptanol,-1.81,log(mol/L),-1.81,log(mol/L),111-70-6
C1=CC(NS(=O)(=O)C)=CC=C1C(O)CCCN(CC)CCCCCCC,Ibutilide,-1.81,log(mol/L),-1.81,log(mol/L),-
OC1=CC=CC=C1C(O)=O,Salicylic acid,-1.82,log(mol/L),-1.82,log(mol/L),69-72-7
O=C(O)C1=C(O)C=CC=C1,Salicylic_acid,-1.82,log(mol/L),-1.82,log(mol/L),-
NC(C1=CC=CC=C1O)=O,o-Hydroxybenzamide,-1.82,log(mol/L),-1.82,log(mol/L),-
O(C1=C(O)C=CC(CC=C)=C1)C,eugenol,2460.0,mg/L,-1.824,log(mol/L),97-53-0
COC(=O)C1=CC=C(O)C=C1,Methylparaben,-1.827,log(mol/L),-1.827,log(mol/L),-
O=C(C1=CC=CC=C1)CC,propiophenone,-1.83,log(mol/L),-1.83,log(mol/L),93-55-0
C1=C(NC(=O)OC(C)C(=O)NCC)C=CC=C1,carbetamide,-1.83,log(mol/L),-1.83,log(mol/L),-
O=C(NCC)C(OC(NC1=CC=CC=C1)=O)C,carbetamide,-1.83,log(mol/L),-1.83,log(mol/L),16118-49-3
CC(N=C1SC(S(N)(=O)=O)=NN1C)=O,methazolamide,-1.83,log(mol/L),-1.83,log(mol/L),554-57-4
CC(=O)N=C1N(C)N=C(S(=O)(=O)N)S1,methazolamide,-1.83,log(mol/L),-1.83,log(mol/L),-
NC(C1=CC=CC=C1O)=O,salicylamide,-1.836,log(mol/L),-1.836,log(mol/L),-
CC12C(O)C=CC3(OC1=O)C2C(C(O)=O)C45CC(=C)C(CCC43)(O)C5,gibberellic acid,-1.84,log(mol/L),-1.84,log(mol/L),77-06-5
C12OC(C(Cl)(Cl)Cl)OC1C(C(O2)C(O)CO)O,chloralose,-1.84,log(mol/L),-1.84,log(mol/L),15879-93-3
OCC(O)C1OC2OC(OC2C1O)C(Cl)(Cl)Cl,chloralose,-1.84,log(mol/L),-1.84,log(mol/L),-
CCCCCCCN,heptylamine,-1.85,log(mol/L),-1.85,log(mol/L),111-68-2
COC1=CC=CC=C1,anisole,-1.85,log(mol/L),-1.85,log(mol/L),100-66-3
CCCCOCCCC,dibutyl ether,-1.85,log(mol/L),-1.85,log(mol/L),142-96-1
ClCCCBr,1-bromo-3-chloropropane,-1.85,log(mol/L),-1.85,log(mol/L),109-70-6
CC12CC(C(C)(C)C1=O)CC2,d-fenchone,-1.85,log(mol/L),-1.85,log(mol/L),4695-62-9
COC(=O)C1=CC=CC=C1,methyl benzoate,-1.85,log(mol/L),-1.85,log(mol/L),-
CCCCOCCCC,dibutyl ether,-1.85,log(mol/L),-1.85,log(mol/L),-
O=C(OC)C1=CC=CC=C1,methyl benzoate,-1.85,log(mol/L),-1.85,log(mol/L),93-58-3
COC1=CC=CC=C1,anisole,-1.85,log(mol/L),-1.85,log(mol/L),-
BrCCCCl,1-bromo-3-chloropropane,-1.85,log(mol/L),-1.85,log(mol/L),-
CC1(C)C2CCC(C)(C2)C1=O,d-fenchone,-1.85,log(mol/L),-1.85,log(mol/L),-
C1C2CC3CC(CC1C3)(N)C2,Amantadine,14007.5,?M/L,-1.854,log(mol/L),-
FC(F)(Cl)C,"1-CHLORO-1,1-DIFLUOROETHANE",1400.0,mg/L,-1.856,log(mol/L),75-68-3
CCCC(CCC)C(=O)O,Valproic acid,-1.86,log(mol/L),-1.86,log(mol/L),-
O=C(O)C(CCC)CCC,Valproic acid,-1.86,log(mol/L),-1.86,log(mol/L),99-66-1
FC(F)(F)C(Cl)Cl,"1,1,1-Trifluoro-2,2-dichloroethane",2100.0,mg/L,-1.862,log(mol/L),306-83-2
O=C1CC(C)CCC1,3-methylcyclohexanone,-1.87,log(mol/L),-1.87,log(mol/L),591-24-2
C=CC=C,"1,3-Butadiene",-1.87,log(mol/L),-1.87,log(mol/L),106-99-0
C(=C)C=C,"1,3-Butadiene",-1.87,log(mol/L),-1.87,log(mol/L),-
C=CC=C,"1,3-Butadiene",-1.87,log(mol/L),-1.87,log(mol/L),-
C1=C(OC)C(O)=C2C34CCN(C(C4C=CC(C3)=O)CC2=C1)C,thebainone a,-1.87,log(mol/L),-1.87,log(mol/L),467-98-1
CCCCCC(OC)=O,Methyl hexanoate,-1.87,log(mol/L),-1.87,log(mol/L),-
O=C1C=CC23C(C1)(CCN2C)C4=C(CC3)C=CC(OC)=C4O,thebainone a,-1.87,log(mol/L),-1.87,log(mol/L),467-98-1
CN1CC(O)N(C1=O)C2=NN=C(S2)C(C)(C)C,Buthidazole,-1.877,log(mol/L),-1.877,log(mol/L),-
O=C1NC(=O)C2(CC2)C(=O)N1,Cyclopropyl-5-spirobarbituric acid,-1.886,log(mol/L),-1.886,log(mol/L),-
O=C1C=CC2=CC=CC=C2O1,Coumarin,-1.89,log(mol/L),-1.89,log(mol/L),91-64-5
CCOC(=O)C1(CCN(C)CC1)C2=CC=CC=C2,meperidine,-1.89,log(mol/L),-1.89,log(mol/L),-
CCCCCOC(=O)C,Pentyl acetate,-1.89,log(mol/L),-1.89,log(mol/L),-
O=C(O)CCCCCCCC(O)=O,azelaic acid,-1.89,log(mol/L),-1.89,log(mol/L),123-99-9
O=C(C1=CC=CC=C1Cl)O,o-chlorobenzoic acid,-1.89,log(mol/L),-1.89,log(mol/L),118-91-2
COC1=C2C(=O)OCC2=CC=C1OC,meconin,-1.89,log(mol/L),-1.89,log(mol/L),569-31-3
O=C(OCC)C1(C2=CC=CC=C2)CCN(C)CC1,meperidine,-1.89,log(mol/L),-1.89,log(mol/L),57-42-1
C12CCCCN1CC3C4CCCCN4CC2C3,sparteine,-1.89,log(mol/L),-1.89,log(mol/L),90-39-1
C1=CC=2OC(=O)C=CC2C=C1,Coumarin,-1.89,log(mol/L),-1.89,log(mol/L),-
O=C(OCCCCC)C,amyl acetate,-1.89,log(mol/L),-1.89,log(mol/L),628-63-7
C=1C(OC)=C(OC)C2C(=O)OCC2C1,meconin,-1.899,log(mol/L),-1.899,log(mol/L),-
ClC(Br)Br,chlorodibromomethane,-1.9,log(mol/L),-1.9,log(mol/L),124-48-1
BrC(Br)Cl,chlorodibromomethane,-1.9,log(mol/L),-1.9,log(mol/L),-
ClC(Br)Br,Chlorodibromethane,-1.9,log(mol/L),-1.9,log(mol/L),-
C(F)(F)(F)C(F)Br,"2-Bromo-1,1,1,2-tetrafluoroethane",2270.0,mg/L,-1.901,log(mol/L),124-72-1
CC(NC1=CC=C(C=C1)OC(C)=O)=O,p-acetoxy-acetanilide,-1.91,log(mol/L),-1.91,log(mol/L),2623-33-8
C(Br)(Br)Br,bromoform,-1.91,log(mol/L),-1.91,log(mol/L),75-25-2
O=N(C1=CC=CC=C1NC(C)=O)=O,2-nitroacetanilide,-1.91,log(mol/L),-1.91,log(mol/L),552-32-9
CN1C2CCC1CC(OC(C(CO)C3=CC=CC=C3)=O)C2,hyoscyamine,-1.91,log(mol/L),-1.91,log(mol/L),101-31-5
BrC(Br)Br,bromoform,-1.91,log(mol/L),-1.91,log(mol/L),-
O=C(OC1CC2N(C(CC2)C1)C)C(C3=CC=CC=C3)CO,Hyascyamine,-1.91,log(mol/L),-1.91,log(mol/L),-
BrC(Br)Br,Tribromomethane,-1.91,log(mol/L),-1.91,log(mol/L),-
ClC(CCl)CCl,"1,2,3-trichloropropane",-1.92,log(mol/L),-1.92,log(mol/L),96-18-4
C(CCC)(=O)OC,propyl butyrate,-1.92,log(mol/L),-1.92,log(mol/L),-
OC(=O)C1=C(C=O)C=CC(OC)=C1OC,opianic acid,-1.92,log(mol/L),-1.92,log(mol/L),519-05-1
C(CCC)(=O)OCCC,propyl butyrate,-1.92,log(mol/L),-1.92,log(mol/L),105-66-8
NC1=CC=CC=2C=CC=CC21,1-naphthylamine,-1.92,log(mol/L),-1.92,log(mol/L),134-32-7
CC(OCCC(C)C)=O,isoamyl acetate,-1.92,log(mol/L),-1.92,log(mol/L),123-92-2
CN(C)C1=CC=CC=C1,"n,n-dimethylaniline",-1.92,log(mol/L),-1.92,log(mol/L),121-69-7
CC(C)CCOC(=O)C,Isopentyl acetate,-1.92,log(mol/L),-1.92,log(mol/L),-
NC(OCCCCCC)=O,n-hexyl carbamate,-1.92,log(mol/L),-1.92,log(mol/L),2114-20-7
O=C(CC)NC1=CC=CC=C1,propionanilide,-1.92,log(mol/L),-1.92,log(mol/L),620-71-3
CN(C)C1=CC=CC=C1,"n,n-dimethylaniline",-1.92,log(mol/L),-1.92,log(mol/L),-
O=C(C1=C(C=O)C=CC(OC)=C1OC)O,opianic acid,-1.92,log(mol/L),-1.92,log(mol/L),519-05-1
NC1=CC=CC=2C=CC=CC12,1-Napthylamine,-1.92,log(mol/L),-1.92,log(mol/L),-
C1=C(Br)C(O)=C(Br)C=C1CC(N)C(=O)O,"L-Tyrosine, 3,5-dibromo-",4000.0,mg/L,-1.928,log(mol/L),300-38-9
OCC1=CC=C(Br)C=C1,"Benzenemethanol, 4-bromo-",2200.0,mg/L,-1.929,log(mol/L),873-75-6
OC(C1=CC=CC=C1)C(C2=CC=CC=C2)O,hydrobenzoin,-1.93,log(mol/L),-1.93,log(mol/L),27134-24-3
C1=CC=CC=C1C(O)C(O)C2=CC=CC=C2,hydrobenzoin,-1.93,log(mol/L),-1.93,log(mol/L),-
C1(=O)NC(=O)NC(C(=O)O)=C1,orotic acid,-1.93,log(mol/L),-1.93,log(mol/L),65-86-1
O=C(C=1NC(=O)NC(C1)=O)O,orotic acid,-1.93,log(mol/L),-1.93,log(mol/L),65-86-1
C1=C(C)C=C2N=C(C)C=CC2=C1,"2,7-dimethylquinoline",-1.94,log(mol/L),-1.94,log(mol/L),-
O=C(NC(C(O)C1=CC=C(N(=O)=O)C=C1)CO)C(Cl)Cl,Chloramphenicol,-1.94,log(mol/L),-1.94,log(mol/L),-
CC1=CC=C2C(=C1)N=C(C=C2)C,"2,7-dimethylquinoline",-1.94,log(mol/L),-1.94,log(mol/L),93-37-8
CC1=NC=2C=CC=CC2C(C)=C1,"2,4-dimethylquinoline",-1.94,log(mol/L),-1.94,log(mol/L),1198-37-4
CCC1=NN=C(NS(=O)(=O)C2=CC=C(N)C=C2)S1,sulfaethidole,-1.94,log(mol/L),-1.94,log(mol/L),94-19-9
CCC,Propane,-1.94,log(mol/L),-1.94,log(mol/L),-
C(C)C,Propane,-1.94,log(mol/L),-1.94,log(mol/L),-
CCC=C,1-Butene,-1.94,log(mol/L),-1.94,log(mol/L),-
O=S(C1=CC=C(N)C=C1)(NC2=NN=C(CC)S2)=O,sulfaethidole,-1.94,log(mol/L),-1.94,log(mol/L),94-19-9
C(C)C=C,1-Butene,-1.94,log(mol/L),-1.94,log(mol/L),-
OC=1N=CC2=NC=CN=C2N1,2-hydroxypteridine,-1.947,log(mol/L),-1.947,log(mol/L),-
NC1=NC=NC2=C1C=CN2C3OC(CO)C(C3O)O,tubercidin,-1.95,log(mol/L),-1.95,log(mol/L),69-33-0
CN(C)C1=NC(C)=C(C)C(OC(N(C)C)=O)=N1,Pirimicarb,-1.95,log(mol/L),-1.95,log(mol/L),23103-98-2
CN(C)C(=O)OC1=NC(=NC(C)=C1C)N(C)C,Pirimicarb,-1.95,log(mol/L),-1.95,log(mol/L),-
NC1=NC=NC=2N(C=CC12)C3OC(CO)C(O)C3O,tubercidin,-1.95,log(mol/L),-1.95,log(mol/L),-
C=12N=CN=C(N)C1C=CN2C3OC(CO)C(O)C3O,tubercidin,-1.95,log(mol/L),-1.95,log(mol/L),-
OC(=O)C1=C(Cl)C=CC(Br)=C1,"Benzoic acid, 5-bromo-2-chloro-",2630.0,mg/L,-1.952,log(mol/L),21739-92-4
FC(Cl)C(F)(F)F,-,3.18,log(mg/L),-1.955,log(mol/L),2837-89-0
ClC(F)C(F)(F)F,"1-Chloro-1,2,2,2-Tetrafluoroethane",1500.0,mg/L,-1.959,log(mol/L),2837-89-0
NC1=CC=CC=C1N(=O)=O,2-nitroaniline,-1.96,log(mol/L),-1.96,log(mol/L),88-74-4
COC1=CC=CC=C1O,guaiacol,-1.96,log(mol/L),-1.96,log(mol/L),90-05-1
CC1=NC=2C=CC=CC2N1,2-methylbenzimidazole,-1.96,log(mol/L),-1.96,log(mol/L),615-15-6
CC1(C)C2CCC1(C)C(=O)C2,camphor,-1.96,log(mol/L),-1.96,log(mol/L),-
COC1=CC=CC=C1N(=O)=O,2-nitroanisole,-1.96,log(mol/L),-1.96,log(mol/L),91-23-6
O=C(O)C=CC1=CNC=N1,urocanic acid,-1.96,log(mol/L),-1.96,log(mol/L),104-98-3
CCC(C)Cl,2-chlorobutane,-1.96,log(mol/L),-1.96,log(mol/L),-
C(Cl)=C(Cl)Cl,trichloroethylene,-1.96,log(mol/L),-1.96,log(mol/L),79-01-6
CC(Cl)CC,2-chlorobutane,-1.96,log(mol/L),-1.96,log(mol/L),78-86-4
NC1=CC=CC=C1N(=O)=O,o-Nitroaniline,-1.96,log(mol/L),-1.96,log(mol/L),-
COC1=CC=CC=C1O,guaiacol,-1.96,log(mol/L),-1.96,log(mol/L),-
COC1=CC=CC=C1N(=O)=O,o-Nitroanisole,-1.96,log(mol/L),-1.96,log(mol/L),-
ClC=C(Cl)Cl,trichloroethylene,-1.96,log(mol/L),-1.96,log(mol/L),-
O=CC=CC1=CC=CC=C1,3-Phenyl-2-propenal,1420.0,mg/L,-1.969,log(mol/L),104-55-2
FC1=CC=C(F)C=C1,"1,4-Difluorobenzene",-1.97,log(mol/L),-1.97,log(mol/L),-
C1=CCC=CC1,"1,4-cyclohexadiene",-1.97,log(mol/L),-1.97,log(mol/L),628-41-1
C1C=CCC=C1,"1,4-cyclohexadiene",-1.97,log(mol/L),-1.97,log(mol/L),-
FC1=CC=C(F)C=C1,p-difluorobenzene,-1.97,log(mol/L),-1.97,log(mol/L),540-36-3
FC1=C(N2CCN(CC2)C(=O)CO)C=CC(N3CC(OC3=O)CNC(=O)C)=C1,Eperezolid,-1.97,log(mol/L),-1.97,log(mol/L),-
CN(CC1=CC(Br)=CC(Br)=C1N)C2CCCCC2,"2-amino-3,5-dibromo-N-cyclohexyl-N-methylbenzene",4000.0,mg/L,-1.973,log(mol/L),3572-43-8
C1CCN(CC1)C2=NC(=N)N(C(=C2)N)O,Minoxidil,-1.98,log(mol/L),-1.98,log(mol/L),38304-91-5
S(=O)(CC(NC(=O)C=CC1=C(NC(=O)NC1=O)C)CO)CSC,Sparsomycin,-1.98,log(mol/L),-1.98,log(mol/L),-
CCCCCC(O)CC,3-Octanol,-1.98,log(mol/L),-1.98,log(mol/L),-
CSCS(=O)CC(CO)NC(=O)C=CC1=C(C)NC(=O)NC1=O,"Sparsomycin (3,8mg/ml)",-1.981,log(mol/L),-1.981,log(mol/L),-
C1=CC=C2C(C=CC=C2O)=C1,1_naphthol,10432.3,?M/L,-1.982,log(mol/L),-
OC(C=C)(CCC=C(C)C)C,linalool,1590.0,mg/L,-1.987,log(mol/L),78-70-6
NC1=CC(=NC(N)=N1=O)N2CCCCC2,Minoxidil,-1.989,log(mol/L),-1.989,log(mol/L),-
OC1(C2(C(NC(NC2=O)=O)=O)O)C(NC(NC1=O)=O)=O,Alloxantin(Uroxine),-1.99,log(mol/L),-1.99,log(mol/L),76-24-4
CCC#CCC,3-Hexyne,-1.99,log(mol/L),-1.99,log(mol/L),-
C1(=O)NC(=O)NC(=O)C1(O)C2(O)C(=O)NC(=O)NC2=O,alloxantin,-1.99,log(mol/L),-1.99,log(mol/L),-
NC(=N)NS(=O)(=O)C1=CC=C(N)C=C1,sulfaguanidine,-1.99,log(mol/L),-1.99,log(mol/L),-
O=S(NC(N)=N)(C1=CC=C(C=C1)N)=O,sulfaguanidine,-1.99,log(mol/L),-1.99,log(mol/L),57-67-0
OC1=CC=C2C(=C1)CCCC2,"5,6,7,8-tetrahydro-2-naphthol",-1.99,log(mol/L),-1.99,log(mol/L),1125-78-6
S(=O)(=O)(N=C(N)N)C1=CC=C(N)C=C1,sulfaguanidine,-1.99,log(mol/L),-1.99,log(mol/L),-
OC1=CC=C2CCCCC2=C1,"5,6,7,8-tetrahydro-2-naphthol",-1.99,log(mol/L),-1.99,log(mol/L),-