SMILES,NAME,Water solubility,UNIT {Water solubility},Solubility_log(mol/L),UNIT {Water solubility}.1,CASRN,MolW(Da),NumHAcceptors,NumHDonors,LogP,Lipinski_rule,Solubility(mol/L)
c1cnc2ncncc2n1,pteridine,0.02,log(mol/L),0.02,log(mol/L),91-18-9,132.12599999999998,4,0,0.41979999999999984,1,1.0471285480508996
c1cnc2ncncc2n1,pteridine,0.02,log(mol/L),0.02,log(mol/L),-,132.12599999999998,4,0,0.41979999999999984,1,1.0471285480508996
C=C(C)C(=O)O,methacrylic acid,0.01,log(mol/L),0.01,log(mol/L),79-41-4,86.08999999999997,1,1,0.6471,1,1.023292992280754
NNC(=O)c1ccncc1,isoniazid,0.01,log(mol/L),0.01,log(mol/L),54-85-3,137.142,3,2,-0.3149000000000006,1,1.023292992280754
NNC(=O)c1ccncc1,isoniazid,0.01,log(mol/L),0.01,log(mol/L),-,137.142,3,2,-0.3149000000000006,1,1.023292992280754
NNC(=O)c1ccncc1,Isonazid,0.009,log(mol/L),0.009,log(mol/L),-,137.142,3,2,-0.3149000000000006,1,1.02093948370768
Oc1ccccc1,Phenol,0.0,log(mol/L),0.0,log(mol/L),108-95-2,94.11299999999999,1,1,1.3921999999999999,1,1.0
CCCCO,1-Butanol,0.0,log(mol/L),0.0,log(mol/L),-,74.12299999999999,1,1,0.7787999999999999,1,1.0
CCCCO,1-Butanol,0.0,log(mol/L),0.0,log(mol/L),71-36-3,74.12299999999999,1,1,0.7787999999999999,1,1.0
Oc1ccccc1,Phenol,0.0,log(mol/L),0.0,log(mol/L),-,94.11299999999999,1,1,1.3921999999999999,1,1.0
CCCC=O,Butyraldehyde,-0.01,log(mol/L),-0.01,log(mol/L),-,72.107,1,0,0.9854,1,0.9772372209558107
CCCC=O,butanal,-0.01,log(mol/L),-0.01,log(mol/L),123-72-8,72.107,1,0,0.9854,1,0.9772372209558107
NC1CONC1=O,Cycloserine,-0.01,log(mol/L),-0.01,log(mol/L),-,102.09299999999999,3,2,-1.6249000000000007,1,0.9772372209558107
CN1C2CCC1C(C(=O)O)C(O)C2,ecgonine,-0.02,log(mol/L),-0.02,log(mol/L),481-37-8,185.22299999999998,3,2,-0.08540000000000059,1,0.954992586021436
CN1C2CCC1C(C(=O)O)C(O)C2,ecgonine,-0.02,log(mol/L),-0.02,log(mol/L),-,185.22299999999998,3,2,-0.08540000000000059,1,0.954992586021436
NC(=O)CCl,chloroacetamide,-0.02,log(mol/L),-0.02,log(mol/L),-,93.513,1,1,-0.2895000000000001,1,0.954992586021436
NC(=O)CCl,chloroacetamide,-0.02,log(mol/L),-0.02,log(mol/L),79-07-2,93.513,1,1,-0.2895000000000001,1,0.954992586021436
C1CCOCC1,tetrahydropyran,-0.03,log(mol/L),-0.03,log(mol/L),-,86.134,1,0,1.1869,1,0.933254300796991
C1CCOCC1,tetrahydropyran,-0.03,log(mol/L),-0.03,log(mol/L),142-68-7,86.134,1,0,1.1869,1,0.933254300796991
CCOC(C)=O,Ethyl acetate,-0.04,log(mol/L),-0.04,log(mol/L),141-78-6,88.106,2,0,0.5694,1,0.9120108393559098
CCOC(C)=O,Ethyl acetate,-0.04,log(mol/L),-0.04,log(mol/L),-,88.106,2,0,0.5694,1,0.9120108393559098
COC(C)C,methyl isopropyl ether,-0.06,log(mol/L),-0.06,log(mol/L),598-53-8,74.123,1,0,1.0412,1,0.8709635899560807
CCC1NC(=O)NC1=O,5-ethylhydantoin,-0.06,log(mol/L),-0.06,log(mol/L),15414-82-1,128.131,2,2,-0.3956000000000001,1,0.8709635899560807
CCC1NC(=O)NC1=O,5-ethylhydantoin,-0.06,log(mol/L),-0.06,log(mol/L),-,128.131,2,2,-0.3956000000000001,1,0.8709635899560807
Cc1cc(O)no1,3-hydroxy-5-methylisoxazole,-0.07,log(mol/L),-0.07,log(mol/L),10004-44-1,99.089,3,1,0.6886199999999998,1,0.8511380382023764
Cc1cc(=O)[nH]o1,3-hydroxy-5-methylisoxazole,-0.07,log(mol/L),-0.07,log(mol/L),10004-44-1,99.089,2,1,0.27631999999999995,1,0.8511380382023764
CCOCC,Diethyl ether,-0.09,log(mol/L),-0.09,log(mol/L),60-29-7,74.123,1,0,1.0428000000000002,1,0.8128305161640993
CCOCC,Diethyl ether,-0.09,log(mol/L),-0.09,log(mol/L),-,74.123,1,0,1.0428000000000002,1,0.8128305161640993
CC(O)C(N)C(=O)O,threonine,-0.09,log(mol/L),-0.09,log(mol/L),72-19-5,119.11999999999999,3,3,-1.2208999999999997,1,0.8128305161640993
N#CCCl,Chloroacetonitrile,-0.092,log(mol/L),-0.092,log(mol/L),-,75.49799999999999,1,0,0.74878,1,0.8090958991783823
O=Cc1ccco1,furfural,-0.1,log(mol/L),-0.1,log(mol/L),98-01-1,96.08499999999998,2,0,1.0920999999999998,1,0.7943282347242815
O=Cc1ccco1,furfural,-0.1,log(mol/L),-0.1,log(mol/L),-,96.08499999999998,2,0,1.0920999999999998,1,0.7943282347242815
OC(CCl)CCl,"1,3-dichloro-2-propanol",-0.11,log(mol/L),-0.11,log(mol/L),96-23-1,128.986,1,1,0.8249,1,0.7762471166286917
Cc1ncc2nccnc2n1,2-methylpteridine,-0.12,log(mol/L),-0.12,log(mol/L),-,146.153,4,0,0.7282199999999999,1,0.7585775750291838
CC(=O)C(C)C,3-Methyl-2-butanone,-0.12,log(mol/L),-0.12,log(mol/L),-,86.134,1,0,1.2314,1,0.7585775750291838
Cc1ncc2nccnc2n1,2-methylpteridine,-0.12,log(mol/L),-0.12,log(mol/L),2432-20-4,146.153,4,0,0.7282199999999999,1,0.7585775750291838
Cc1ncnc2nccnc12,2-methylpteridine,-0.12,log(mol/L),-0.12,log(mol/L),-,146.15299999999996,4,0,0.7282199999999999,1,0.7585775750291838
CC(C)(S)C(N)C(=O)O,Penicillamine,-0.13,log(mol/L),-0.13,log(mol/L),-,149.215,3,3,0.10669999999999985,1,0.7413102413009175
CC(C)(S)C(N)C(=O)O,pencillamine,-0.13,log(mol/L),-0.13,log(mol/L),52-67-5,149.215,3,3,0.10669999999999985,1,0.7413102413009175
CCN(CC)CC,triethylamine,-0.14,log(mol/L),-0.14,log(mol/L),121-44-8,101.193,1,0,1.3481,1,0.72443596007499
CCC(=O)OC,methyl propionate,-0.14,log(mol/L),-0.14,log(mol/L),554-12-1,88.106,2,0,0.5694,1,0.72443596007499
CCC(=O)OC,methyl propionate,-0.14,log(mol/L),-0.14,log(mol/L),-,88.106,2,0,0.5694,1,0.72443596007499
C=CCCCO,4-Pentene-1-ol,-0.15,log(mol/L),-0.15,log(mol/L),-,86.13399999999999,1,1,0.9448999999999999,1,0.7079457843841379
Cn1c(=O)c2c(ncn2CC(O)CO)n(C)c1=O,dyphylline,-0.17,log(mol/L),-0.17,log(mol/L),-,254.24599999999998,8,2,-2.213099999999999,1,0.6760829753919817
O=NN1CCCCC1,n-nitrosopiperidine,-0.17,log(mol/L),-0.17,log(mol/L),100-75-4,114.14800000000001,2,0,1.1537,1,0.6760829753919817
Cn1c(=O)c2c(ncn2CC(O)CO)n(C)c1=O,dyphylline,-0.17,log(mol/L),-0.17,log(mol/L),479-18-5,254.24599999999998,8,2,-2.213099999999999,1,0.6760829753919817
Oc1ccc(O)cc1,"1,4-benzenediol",-0.17,log(mol/L),-0.17,log(mol/L),123-31-9,110.11199999999998,2,2,1.0977999999999999,1,0.6760829753919817
Oc1ccc(O)cc1,"1,4-benzenediol",-0.17,log(mol/L),-0.17,log(mol/L),-,110.11199999999998,2,2,1.0977999999999999,1,0.6760829753919817
OC1CC(O)C(O)C(O)C1O,d-quercitol,-0.17,log(mol/L),-0.17,log(mol/L),488-73-3,164.15699999999998,5,5,-2.8054,1,0.6760829753919817
c1cc[nH]c1,pyrrole,-0.17,log(mol/L),-0.17,log(mol/L),109-97-7,67.091,0,1,1.0147,1,0.6760829753919817
CC(C)C(C)O,3-methyl-2-butanol,-0.18,log(mol/L),-0.18,log(mol/L),-,88.14999999999999,1,1,1.0231999999999999,1,0.660693448007596
CCCC(C)=O,2-pentanone,-0.19,log(mol/L),-0.19,log(mol/L),-,86.13399999999999,1,0,1.3755,1,0.6456542290346555
CCCC(C)=O,2-pentanone,-0.19,log(mol/L),-0.19,log(mol/L),107-87-9,86.13399999999999,1,0,1.3755,1,0.6456542290346555
CCCC(=O)O,butyric acid,-0.19,log(mol/L),-0.19,log(mol/L),107-92-6,88.10599999999998,1,1,0.8711,1,0.6456542290346555
CC(C)C(C)O,3-methyl-2-butanol,-0.2,log(mol/L),-0.2,log(mol/L),598-75-4,88.14999999999999,1,1,1.0231999999999999,1,0.6309573444801932
CN(C)NC(=O)CCC(=O)O,daminozide,-0.2,log(mol/L),-0.2,log(mol/L),1596-84-5,160.173,3,2,-0.556,1,0.6309573444801932
O=C(O)CCC(=O)O,succinic acid,-0.2,log(mol/L),-0.2,log(mol/L),110-15-6,118.088,2,2,-0.06420000000000009,1,0.6309573444801932
OCc1cc(Br)ccc1O,"Benzenemethanol, 5-bromo-2-hydroxy-",126000.0,mg/L,-0.2072,log(mol/L),2316-64-5,203.035,2,2,1.647,1,0.6205831792990618
COP(=O)(OC)C(O)C(Cl)(Cl)Cl,trichlorfon,-0.22,log(mol/L),-0.22,log(mol/L),52-68-6,257.437,4,1,2.1609000000000003,1,0.6025595860743578
COP(=O)(OC)C(O)C(Cl)(Cl)Cl,trichlorfon,-0.22,log(mol/L),-0.22,log(mol/L),-,257.437,4,1,2.1609000000000003,1,0.6025595860743578
C=CC(=O)OC,methyl acrylate,-0.22,log(mol/L),-0.22,log(mol/L),-,86.08999999999999,2,0,0.34539999999999993,1,0.6025595860743578
C=CC(=O)OC,methyl acrylate,-0.22,log(mol/L),-0.22,log(mol/L),96-33-3,86.08999999999999,2,0,0.34539999999999993,1,0.6025595860743578
CC[N+](=O)[O-],Nitroethane,-0.22,log(mol/L),-0.22,log(mol/L),-,75.067,2,0,0.2829999999999999,1,0.6025595860743578
c1ncc2[nH]nnc2n1,"1H-1,2,3-Triazolo[4,5-d]pyrimidine",71000.0,mg/L,-0.2319,log(mol/L),273-40-5,121.10300000000001,4,1,-0.25210000000000016,1,0.58627314335345
c1ncc2[nH]nnc2n1,-,4.851258,log(mg/L),-0.2319,log(mol/L),273-40-5,121.10300000000001,4,1,-0.25210000000000016,1,0.58627314335345
CCC(O)CC,3-pentanol,-0.24,log(mol/L),-0.24,log(mol/L),584-02-1,88.15,1,1,1.1673,1,0.5754399373371569
COC(C)(C)C,Methyl t-butyl ether,-0.24,log(mol/L),-0.24,log(mol/L),-,88.14999999999999,1,0,1.4313,1,0.5754399373371569
COC(C)(C)C,Methyl t-butyl ether,-0.24,log(mol/L),-0.24,log(mol/L),1634-04-4,88.14999999999999,1,0,1.4313,1,0.5754399373371569
CCC(O)CC,3-pentanol,-0.24,log(mol/L),-0.24,log(mol/L),-,88.15,1,1,1.1673,1,0.5754399373371569
OCC1OC(OC2C(CO)OC(O)C(O)C2O)C(O)C(O)C1O,Lactose,-0.244,log(mol/L),-0.244,log(mol/L),-,342.297,11,8,-5.397199999999993,0,0.5701642722807475
S=C=Nc1ccc(Br)cc1,p-Bromophenyl isothiocyanate,116000.0,mg/L,-0.2661,log(mol/L),1985-12-2,214.087,2,0,3.1834000000000007,1,0.5418761044516258
O=C(O)C1C2CCC(O2)C1C(=O)O,endothall,-0.27,log(mol/L),-0.27,log(mol/L),145-73-3,186.163,3,2,-0.050800000000000234,1,0.5370317963702527
O=C(O)C1CCCN1,l-proline,>535000.0,?M/L,-0.2716,log(mol/L),-,115.13200000000002,2,2,-0.177,1,0.535056938173137
CCC(=O)CC,3-Pentanone,-0.28,log(mol/L),-0.28,log(mol/L),-,86.134,1,0,1.3755,1,0.5248074602497725
OCc1ccccc1O,salicyl alcohol,-0.29,log(mol/L),-0.29,log(mol/L),90-01-7,124.13899999999997,2,2,0.8844999999999998,1,0.5128613839913648
CCCC(C)O,2-pentanol,-0.29,log(mol/L),-0.29,log(mol/L),-,88.14999999999999,1,1,1.1673,1,0.5128613839913648
CCCC(C)O,2-pentanol,-0.29,log(mol/L),-0.29,log(mol/L),6032-29-7,88.14999999999999,1,1,1.1673,1,0.5128613839913648
CC(C)(C(=O)O)C(C)(CC(=O)O)C(=O)O,l-camphoronic acid,-0.29,log(mol/L),-0.29,log(mol/L),2385-74-2,218.20499999999996,3,3,0.6628,1,0.5128613839913648
N#CCCCl,3-chloropropionitrile,-0.29,log(mol/L),-0.29,log(mol/L),542-76-7,89.525,1,0,1.1388800000000001,1,0.5128613839913648
N#CCCCl,3-chloropropionitrile,-0.29,log(mol/L),-0.29,log(mol/L),-,89.525,1,0,1.1388800000000001,1,0.5128613839913648
OCc1ccccc1O,salicyl alcohol,-0.29,log(mol/L),-0.29,log(mol/L),-,124.13899999999997,2,2,0.8844999999999998,1,0.5128613839913648
CC(C)COC(N)=O,o-isobutyl carbamate,-0.3,log(mol/L),-0.3,log(mol/L),2114-15-0,117.148,2,1,0.7377,1,0.5011872336272722
N#CN=C(N)N,2-cyanoguanidine,-0.31,log(mol/L),-0.31,log(mol/L),-,84.08200000000002,2,2,-1.2591200000000002,1,0.4897788193684462
N#CNC(=N)N,2-cyanoguanidine,-0.31,log(mol/L),-0.31,log(mol/L),461-58-5,84.08200000000001,2,3,-1.0494500000000002,1,0.4897788193684462
N#CN=C(N)N,2-cyanoguanidine,-0.31,log(mol/L),-0.31,log(mol/L),461-58-5,84.08200000000002,2,2,-1.2591200000000002,1,0.4897788193684462
NC(=O)OCc1ccccc1,o-benzyl carbamate,-0.35,log(mol/L),-0.35,log(mol/L),621-84-1,151.165,2,1,1.2819000000000003,1,0.44668359215096315
Nc1nccs1,2-aminothiazole,-0.36,log(mol/L),-0.36,log(mol/L),96-50-4,100.14599999999999,3,1,0.7253000000000001,1,0.436515832240166
Nc1nccs1,aminothiazole,-0.36,log(mol/L),-0.36,log(mol/L),-,100.14599999999999,3,1,0.7253000000000001,1,0.436515832240166
OCC(CO)(CO)CO,Pentaerythritol,-0.36,log(mol/L),-0.36,log(mol/L),-,136.147,4,4,-2.058,1,0.436515832240166
CCC(C)(O)CC,3-methyl-3-pentanol,-0.36,log(mol/L),-0.36,log(mol/L),-,102.17699999999998,1,1,1.5574,1,0.436515832240166
Cc1c(N(C)C)c(=O)n(-c2ccccc2)n1C,Aminopyrine,-0.364,log(mol/L),-0.364,log(mol/L),-,231.29900000000004,4,0,1.55042,1,0.43251383103500873
Nc1ccc(N)cc1,"1,4-benzenediamine",-0.38,log(mol/L),-0.38,log(mol/L),106-50-3,108.144,2,2,0.8510000000000002,1,0.4168693834703354
CCC(C)(O)CC,3-methyl-3-pentanol,-0.38,log(mol/L),-0.38,log(mol/L),77-74-7,102.17699999999998,1,1,1.5574,1,0.4168693834703354
CCC1(CC)C(=O)NCC(C)C1=O,Methyprylon,-0.38,log(mol/L),-0.38,log(mol/L),-,183.25099999999998,2,1,1.1278,1,0.4168693834703354
CCCOC,methyl propyl ether,-0.39,log(mol/L),-0.39,log(mol/L),557-17-5,74.12299999999999,1,0,1.0428,1,0.40738027780411273
CC(C)C(C)CO,"2,3-dimethylbutanol",-0.39,log(mol/L),-0.39,log(mol/L),19550-30-2,102.17699999999999,1,1,1.2708,1,0.40738027780411273
CCCOC,methyl propyl ether,-0.39,log(mol/L),-0.39,log(mol/L),-,74.12299999999999,1,0,1.0428,1,0.40738027780411273
CC(C)(C)CO,"2,2-Dimethylpropanol",-0.4,log(mol/L),-0.4,log(mol/L),-,88.14999999999999,1,1,1.0248,1,0.3981071705534972
OCc1ccccc1,phenylmethanol,-0.4,log(mol/L),-0.4,log(mol/L),100-51-6,108.13999999999997,1,1,1.1789,1,0.3981071705534972
O=C1NC(=O)C(=O)N1,parabanic acid,-0.4,log(mol/L),-0.4,log(mol/L),120-89-8,114.05999999999999,3,2,-1.6476000000000002,1,0.3981071705534972
CC(C)(C)CO,"2,2-dimethyl-1-propanol",-0.4,log(mol/L),-0.4,log(mol/L),75-84-3,88.14999999999999,1,1,1.0248,1,0.3981071705534972
OCc1ccccc1,phenylmethanol,-0.4,log(mol/L),-0.4,log(mol/L),-,108.13999999999997,1,1,1.1789,1,0.3981071705534972
C=C,Ethylene,-0.4,log(mol/L),-0.4,log(mol/L),-,28.053999999999995,0,0,0.8022,1,0.3981071705534972
O=C1CNC(=O)N1,hydantoin,-0.4,log(mol/L),-0.4,log(mol/L),461-72-3,100.077,2,2,-1.1742,1,0.3981071705534972
O=C1CNC(=O)N1,hydantoin,-0.4,log(mol/L),-0.4,log(mol/L),-,100.077,2,2,-1.1742,1,0.3981071705534972
Nc1ccc(C(=O)O)cc1,4-Aminobenzoic acid,-0.4,log(mol/L),-0.4,log(mol/L),150-13-0,137.138,2,2,0.9670000000000001,1,0.3981071705534972
O=C1NC(=O)C(=O)N1,parabanic acid,-0.4,log(mol/L),-0.4,log(mol/L),-,114.05999999999999,3,2,-1.6476000000000002,1,0.3981071705534972
OCc1ccccc1,Benzyl alcohol,42900.0,mg/L,-0.4015,log(mol/L),100-51-6,108.13999999999997,1,1,1.1789,1,0.3967345289316547
Nc1ccccc1,aniline,-0.41,log(mol/L),-0.41,log(mol/L),62-53-3,93.12899999999999,1,1,1.2688000000000001,1,0.3890451449942806
OCC1OC(OCC2OC(OC3(CO)OC(CO)C(O)C3O)C(O)C(O)C2O)C(O)C(O)C1O,Raffinose,-0.41,log(mol/L),-0.41,log(mol/L),-,504.43800000000005,16,11,-7.571399999999989,0,0.3890451449942806
CC(C)C(C)(C)O,"2,3-dimethyl-2-butanol",-0.41,log(mol/L),-0.41,log(mol/L),594-60-5,102.17699999999998,1,1,1.4133,1,0.3890451449942806
C#CC,Propyne,-0.41,log(mol/L),-0.41,log(mol/L),-,40.065,0,0,0.6395,1,0.3890451449942806
Nc1ccccc1,aniline,-0.41,log(mol/L),-0.41,log(mol/L),-,93.12899999999999,1,1,1.2688000000000001,1,0.3890451449942806
CNC(C)C(O)c1ccccc1,Ephedrine,-0.41,log(mol/L),-0.41,log(mol/L),-,165.236,2,2,1.3278999999999999,1,0.3890451449942806
O=C(O)c1c(Br)c(O)c(O)c(O)c1Br,"Benzoic acid, 2,6-dibromo-3,4,5-trihydroxy-",125000.0,mg/L,-0.4188,log(mol/L),602-92-6,327.912,4,4,2.0266,1,0.38124135110429913
CSCCC(N)C(=O)O,methionine,-0.42,log(mol/L),-0.42,log(mol/L),63-68-3,149.215,3,2,0.1513999999999998,1,0.3801893963205612
CNC(C)C(O)c1ccccc1,Ephedrine,-0.42,log(mol/L),-0.42,log(mol/L),299-42-3,165.236,2,2,1.3278999999999999,1,0.3801893963205612
Nc1ccccc1N,"1,2-benzenediamine",-0.42,log(mol/L),-0.42,log(mol/L),95-54-5,108.144,2,2,0.851,1,0.3801893963205612
CCCCOCCO,2-butoxyethanol,-0.42,log(mol/L),-0.42,log(mol/L),111-76-2,118.17599999999999,2,1,0.7953999999999999,1,0.3801893963205612
CCCCOCCO,2-butoxyethanol,-0.42,log(mol/L),-0.42,log(mol/L),-,118.17599999999999,2,1,0.7953999999999999,1,0.3801893963205612
O=C(O)CCI,beta-iodopropionic acid,-0.43,log(mol/L),-0.43,log(mol/L),141-76-4,199.97500000000002,1,1,0.8961000000000001,1,0.37153522909717257
CCOC(C)OCC,"1,1-diethoxyethane",-0.43,log(mol/L),-0.43,log(mol/L),-,118.176,2,0,1.4054,1,0.37153522909717257
CCOC(C)OCC,"1,1-diethoxyethane",-0.43,log(mol/L),-0.43,log(mol/L),105-57-7,118.176,2,0,1.4054,1,0.37153522909717257
OC1CCCCC1,cyclohexanol,-0.44,log(mol/L),-0.44,log(mol/L),108-93-0,100.161,1,1,1.3114,1,0.36307805477010135
OC1CCCCC1,cyclohexanol,-0.44,log(mol/L),-0.44,log(mol/L),-,100.161,1,1,1.3114,1,0.36307805477010135
CSC,Dimethyl sulfide,-0.45,log(mol/L),-0.45,log(mol/L),-,62.137,1,0,0.9792,1,0.35481338923357547
CC(=O)CC1CCCCN1,pelletierine,-0.45,log(mol/L),-0.45,log(mol/L),-,141.214,2,1,1.1076,1,0.35481338923357547
COC(=O)c1cccnc1,methyl nicotinate,-0.46,log(mol/L),-0.46,log(mol/L),-,137.138,3,0,0.8681999999999999,1,0.3467368504525316
CCCNCCC,dipropylamine,-0.46,log(mol/L),-0.46,log(mol/L),142-84-7,101.193,1,1,1.396,1,0.3467368504525316
Oc1cccnc1,3-hydroxypyridine,-0.46,log(mol/L),-0.46,log(mol/L),109-00-2,95.101,2,1,0.7871999999999999,1,0.3467368504525316
COC(=O)c1cccnc1,methyl nicotinate,-0.46,log(mol/L),-0.46,log(mol/L),93-60-7,137.138,3,0,0.8681999999999999,1,0.3467368504525316
Cc1ncnc2nccnc12,4-methylpteridine,-0.466,log(mol/L),-0.466,log(mol/L),-,146.15299999999996,4,0,0.7282199999999999,1,0.3419794425137088
Cc1ncc2nccnc2n1,4-methylpteridine,-0.47,log(mol/L),-0.47,log(mol/L),-,146.153,4,0,0.7282199999999999,1,0.33884415613920255
Cc1ncnc2nccnc12,4-methylpteridine,-0.47,log(mol/L),-0.47,log(mol/L),2432-21-5,146.15299999999996,4,0,0.7282199999999999,1,0.33884415613920255
CCC(C)CO,2-Methylbutanol,-0.47,log(mol/L),-0.47,log(mol/L),-,88.14999999999999,1,1,1.0248,1,0.33884415613920255
CCC(C)CO,2-methyl-1-butanol,-0.47,log(mol/L),-0.47,log(mol/L),137-32-6,88.14999999999999,1,1,1.0248,1,0.33884415613920255
CN1C2CC(OC(=O)C(CO)c3ccccc3)CC1C1OC12,Scopolamine,-0.48,log(mol/L),-0.48,log(mol/L),51-34-3,303.358,5,1,0.9180999999999995,1,0.3311311214825911
O=C(O)c1ccco1,2-furoic acid,-0.48,log(mol/L),-0.48,log(mol/L),88-14-2,112.08399999999997,2,1,0.9778,1,0.3311311214825911
NCC(O)c1ccccc1,phenylethanolamine,-0.48,log(mol/L),-0.48,log(mol/L),-,137.182,2,2,0.6787000000000001,1,0.3311311214825911
NCC(O)c1ccccc1,phenylethanolamine,-0.48,log(mol/L),-0.48,log(mol/L),7568-93-6,137.182,2,2,0.6787000000000001,1,0.3311311214825911
Nc1c(Br)cc(Br)c(S(=O)(=O)O)c1Br,"Benzenesulfonic acid, 3-amino-2,4,6-tribromo-",133000.0,mg/L,-0.4888,log(mol/L),58585-89-0,409.8810000000001,3,2,2.803000000000001,1,0.32448901566053656
CCCOC=O,propyl formate,-0.49,log(mol/L),-0.49,log(mol/L),110-74-7,88.10599999999998,2,0,0.5694,1,0.32359365692962827
CCCC(C)(C)O,2-methyl-2-pentanol,-0.49,log(mol/L),-0.49,log(mol/L),-,102.17699999999998,1,1,1.5574,1,0.32359365692962827
CCCC(C)(C)O,2-methyl-2-pentanol,-0.49,log(mol/L),-0.49,log(mol/L),590-36-3,102.17699999999998,1,1,1.5574,1,0.32359365692962827
CCCOC=O,propyl formate,-0.49,log(mol/L),-0.49,log(mol/L),-,88.10599999999998,2,0,0.5694,1,0.32359365692962827
CC(C)(C)CCO,"3,3-dimethyl-1-butanol",-0.5,log(mol/L),-0.5,log(mol/L),624-95-3,102.17699999999999,1,1,1.4149,1,0.31622776601683794
CC(C)(C)CCO,"3,3-dimethyl-1-butanol",-0.5,log(mol/L),-0.5,log(mol/L),-,102.17699999999999,1,1,1.4149,1,0.31622776601683794
NCCC(O)C(=O)NC1CC(N)C(OC2OC(CN)C(O)C(O)C2O)C(O)C1OC1OC(CO)C(O)C(N)C1O,amikacin,-0.5,log(mol/L),-0.5,log(mol/L),37517-28-5,585.6080000000002,17,13,-8.424200000000015,0,0.31622776601683794
NCCC(O)C(=O)NC1CC(N)C(OC2OC(CN)C(O)C(O)C2O)C(O)C1OC1OC(CO)C(O)C(N)C1O,amikacin,-0.5,log(mol/L),-0.5,log(mol/L),-,585.6080000000002,17,13,-8.424200000000015,0,0.31622776601683794
CN1C2CC(OC(=O)C(CO)c3ccccc3)CC1C1OC12,Scopolamine,-0.5,log(mol/L),-0.5,log(mol/L),-,303.358,5,1,0.9180999999999995,1,0.31622776601683794
CC(C)CCO,3-Methylbutan-1-ol,-0.51,log(mol/L),-0.51,log(mol/L),-,88.14999999999999,1,1,1.0248,1,0.30902954325135906
CC(C)CCO,isopentanol,-0.52,log(mol/L),-0.52,log(mol/L),123-51-3,88.14999999999999,1,1,1.0248,1,0.3019951720402016
NC(Cc1cnc[nH]1)C(=O)O,histidine,-0.53,log(mol/L),-0.53,log(mol/L),71-00-1,155.15699999999998,3,3,-0.6359000000000001,1,0.29512092266663853
NC(Cc1c[nH]cn1)C(=O)O,histidine,-0.53,log(mol/L),-0.53,log(mol/L),71-00-1,155.15699999999998,3,3,-0.6359000000000001,1,0.29512092266663853
CCCC(O)C(CC)CO,"2-ethyl-1,3-hexanediol",-0.54,log(mol/L),-0.54,log(mol/L),94-96-2,146.23,2,2,1.1659,1,0.28840315031266056
NC(=O)CCC(N)C(=O)O,glutamine,-0.55,log(mol/L),-0.55,log(mol/L),56-85-9,146.14600000000002,3,3,-1.3361999999999998,1,0.28183829312644537
CC(=O)OC(C)C,Isopropyl acetate,-0.55,log(mol/L),-0.55,log(mol/L),108-21-4,102.133,2,0,0.9579,1,0.28183829312644537
CCOC(C)C,ethyl isopropyl ether,-0.55,log(mol/L),-0.55,log(mol/L),625-54-7,88.15,1,0,1.4313,1,0.28183829312644537
CC(=O)OC(C)C,Isopropyl acetate,-0.55,log(mol/L),-0.55,log(mol/L),-,102.133,2,0,0.9579,1,0.28183829312644537
CC(=O)CCCCn1c(=O)c2c(ncn2C)n(C)c1=O,Pentoxifylline,-0.56,log(mol/L),-0.56,log(mol/L),-,278.31200000000007,7,0,0.19300000000000006,1,0.2754228703338166
CC1CO1,propylene oxide,-0.59,log(mol/L),-0.59,log(mol/L),75-56-9,58.08,1,0,0.4051,1,0.2570395782768864
C=CC(O)CCC,1-Hexene-3-ol,-0.59,log(mol/L),-0.59,log(mol/L),-,100.161,1,1,1.3334,1,0.2570395782768864