SMILES,NAME,Water solubility,UNIT {Water solubility},Solubility_log(mol/L),UNIT {Water solubility}.1,CASRN,MolW(Da),NumHAcceptors,NumHDonors,LogP,Lipinski_rule,Solubility(mol/L)
O=C(O)c1cn(C2CC2)c2cc(N3CCNCC3)c(F)cc2c1=O,Ciprofloxacin,253.219,?M/L,-3.597,log(mol/L),-,331.34700000000004,5,2,1.5833,1,0.00025292979964461446
O=C1Nc2ccc(Cl)cc2C(c2ccccc2Cl)=NC1O,Lorazepam,-3.6,log(mol/L),-3.6,log(mol/L),846-49-1,321.163,3,2,3.1013000000000015,1,0.00025118864315095795
Cc1nnc2n1-c1ccc(Cl)cc1C(c1ccccc1)=NC2,Alprazolam,-3.6,log(mol/L),-3.6,log(mol/L),-,308.77200000000005,4,0,3.5801200000000017,1,0.00025118864315095795
CN1CCN(c2cc3c(cc2F)c(=O)c(C(=O)O)cn3-c2ccc(F)cc2)CC1,difloxacin,251.311,?M/L,-3.6,log(mol/L),-,399.3970000000001,5,1,2.7189000000000014,1,0.00025118864315095795
c1ccc2ccccc2c1,Naphthalene,-3.6,log(mol/L),-3.6,log(mol/L),91-20-3,128.17399999999995,0,0,2.839800000000001,1,0.00025118864315095795
c1ccc2ccccc2c1,Napthalene,-3.6,log(mol/L),-3.6,log(mol/L),-,128.17399999999995,0,0,2.839800000000001,1,0.00025118864315095795
c1ccc2ccccc2c1,Naphthalene,-3.6,log(mol/L),-3.6,log(mol/L),-,128.17399999999995,0,0,2.839800000000001,1,0.00025118864315095795
O=C1Nc2ccc(Cl)cc2C(c2ccccc2Cl)=NC1O,Lorazepam,-3.6,log(mol/L),-3.6,log(mol/L),-,321.163,3,2,3.1013000000000015,1,0.00025118864315095795
O=C1Nc2ccc(Cl)cc2C(c2ccccc2Cl)=NC1O,Lorazepam,-3.604,log(mol/L),-3.604,log(mol/L),-,321.163,3,2,3.1013000000000015,1,0.000248885731828239
CCn1cc(C(=O)O)c(=O)c2ccc(C)nc21,nalidixic_acid,245.393,?M/L,-3.61,log(mol/L),-,232.23899999999998,4,1,1.4230200000000002,1,0.0002454708915685031
CC(C)(C)C(=O)C(Oc1ccc(Cl)cc1)n1cncn1,triadimefon,-3.61,log(mol/L),-3.61,log(mol/L),43121-43-3,293.754,5,0,3.1243000000000016,1,0.0002454708915685031
N#Cc1cc(I)c(O)c(I)c1,Ioxynil,-3.61,log(mol/L),-3.61,log(mol/L),1689-83-4,370.91499999999996,2,1,2.4730799999999995,1,0.0002454708915685031
CC(C)(C)C(=O)C(Oc1ccc(Cl)cc1)n1cncn1,triadimefon,-3.61,log(mol/L),-3.61,log(mol/L),-,293.754,5,0,3.1243000000000016,1,0.0002454708915685031
N#Cc1cc(I)c(O)c(I)c1,Ioxynil,-3.61,log(mol/L),-3.61,log(mol/L),-,370.91499999999996,2,1,2.4730799999999995,1,0.0002454708915685031
CCC1COC(Cn2cncn2)(c2ccc(Cl)cc2Cl)O1,-,1.90309,log(mg/L),-3.613,log(mol/L),60207-93-4,328.19900000000007,5,0,3.263300000000002,1,0.00024378108183687524
CC(C)(C)C(=O)C(Oc1ccc(Cl)cc1)n1cncn1,triadimefon,71.5,mg/L,-3.614,log(mol/L),43121-43-3,293.754,5,0,3.1243000000000016,1,0.00024322040090738158
CC(C)(C)C(=O)C(Oc1ccc(Cl)cc1)n1cncn1,-,1.854306,log(mg/L),-3.614,log(mol/L),43121-43-3,293.754,5,0,3.1243000000000016,1,0.00024322040090738158
O=C1CC(c2ccc(O)c(O)c2)Oc2cc(O)cc(O)c21,eriodictyol,-3.62,log(mol/L),-3.62,log(mol/L),552-58-9,288.25500000000005,6,4,2.215500000000001,1,0.000239883291901949
CC(C)NCC(O)COc1cccc2ccccc12,Propranolol,-3.62,log(mol/L),-3.62,log(mol/L),-,259.34900000000005,3,2,2.5775000000000006,1,0.000239883291901949
COC(=O)Nc1nc2ccc(C(=O)c3ccccc3)cc2[nH]1,mebendazole,-3.62,log(mol/L),-3.62,log(mol/L),-,295.298,4,2,2.972200000000001,1,0.000239883291901949
O=C1CC(c2ccc(O)c(O)c2)Oc2cc(O)cc(O)c21,eriodictyol,-3.62,log(mol/L),-3.62,log(mol/L),-,288.25500000000005,6,4,2.215500000000001,1,0.000239883291901949
CNCCCN1c2ccccc2CCc2ccccc21,Desipramine,235.682,?M/L,-3.628,log(mol/L),-,266.388,2,1,3.5328000000000026,1,0.0002355049283896009
Clc1ccc(Br)cc1,1-bromo-4-chlorobenzene,-3.63,log(mol/L),-3.63,log(mol/L),106-39-8,191.45499999999998,0,0,3.102500000000001,1,0.00023442288153199226
CCCCCCCCCCO,1-decanol,-3.63,log(mol/L),-3.63,log(mol/L),112-30-1,158.285,1,1,3.119400000000002,1,0.00023442288153199226
Clc1ccc(Br)cc1,p-Bromochlorobenzene,44.9,mg/L,-3.63,log(mol/L),106-39-8,191.45499999999998,0,0,3.102500000000001,1,0.00023442288153199226
Clc1ccccc1Br,2-BROMOCHLOROBENZENE,44.9,mg/L,-3.63,log(mol/L),694-80-4,191.45499999999998,0,0,3.1025,1,0.00023442288153199226
Clc1ccc(Br)cc1,p-Chlorobromobenzene,-3.63,log(mol/L),-3.63,log(mol/L),-,191.45499999999998,0,0,3.102500000000001,1,0.00023442288153199226
CCCCCCCCCCO,1-decanol,-3.63,log(mol/L),-3.63,log(mol/L),-,158.285,1,1,3.119400000000002,1,0.00023442288153199226
Clc1ccc(Br)cc1,1-bromo-4-chlorobenzene,-3.63,log(mol/L),-3.63,log(mol/L),-,191.45499999999998,0,0,3.102500000000001,1,0.00023442288153199226
CCC1CCOC(Cn2cncn2)(c2ccc(Cl)cc2Cl)O1,"1-[[2-(2,4-DICHLOROPHENYL)-4-ETHYL-1,3-DIOXOLAN-",80.0,mg/L,-3.631,log(mol/L),60207-93-4,342.2260000000001,5,0,3.653400000000003,1,0.0002338837238659356
CCC1CCOC(Cn2cncn2)(c2ccc(Cl)cc2Cl)O1,-,80.0,mg/L,-3.631,log(mol/L),60207-93-4,342.2260000000001,5,0,3.653400000000003,1,0.0002338837238659356
COc1cc2c(N)nc(N3CCN(C(=O)OCC(C)(C)O)CC3)nc2c(OC)c1OC,Trimazosin,-3.638,log(mol/L),-3.638,log(mol/L),-,435.4810000000003,10,2,1.2673,1,0.0002301441817408509
CCOP(=S)(OCC)Oc1cc(C)nc(C(C)C)n1,diazinon,-3.64,log(mol/L),-3.64,log(mol/L),333-41-5,304.35200000000003,6,0,3.5847200000000026,1,0.00022908676527677723
COc1cc2c(N)nc(N3CCN(C(=O)OCC(C)(C)O)CC3)nc2c(OC)c1OC,Trimazosin,-3.64,log(mol/L),-3.64,log(mol/L),-,435.4810000000003,10,2,1.2673,1,0.00022908676527677723
CCOP(=S)(OCC)Oc1cc(C)nc(C(C)C)n1,diazinon,-3.64,log(mol/L),-3.64,log(mol/L),-,304.35200000000003,6,0,3.5847200000000026,1,0.00022908676527677723
CC1CC2C3CCC4=CC(=O)C=CC4(C)C3(F)C(O)CC2(C)C1(O)C(=O)CO,Dexamethasone,-3.64,log(mol/L),-3.64,log(mol/L),50-02-2,392.4670000000002,5,3,1.8957000000000002,1,0.00022908676527677723
CC(CCC(=O)O)C1CCC2C3C(O)CC4CC(O)CCC4(C)C3CCC12C,chenodeoxycholic acid,-3.64,log(mol/L),-3.64,log(mol/L),474-25-9,392.5800000000002,3,3,4.477900000000004,1,0.00022908676527677723
CC1CC2C3CCC4=CC(=O)C=CC4(C)C3(F)C(O)CC2(C)C1(O)C(=O)CO,Dexamethasone,-3.64,log(mol/L),-3.64,log(mol/L),-,392.4670000000002,5,3,1.8957000000000002,1,0.00022908676527677723
CC(C)C(C)C,"2,3-Dimethylbutane",-3.65,log(mol/L),-3.65,log(mol/L),-,86.178,0,0,2.2984,1,0.000223872113856834
Cc1cc2nc3c(=O)[nH]c(=O)nc-3n(CC(O)C(O)C(O)CO)c2cc1C,Riboflavine,-3.65,log(mol/L),-3.65,log(mol/L),-,376.36900000000014,9,5,-1.7235599999999989,1,0.000223872113856834
CCOP(=S)(OCC)Oc1nc(Cl)n(C(C)C)n1,-,1.838849,log(mg/L),-3.658,log(mol/L),42509-80-8,313.747,7,0,3.1887000000000016,1,0.00021978598727848253
CCOP(=S)(OCC)Oc1nc(Cl)n(C(C)C)n1,Isazofos,69.0,mg/L,-3.658,log(mol/L),42509-80-8,313.747,7,0,3.1887000000000016,1,0.00021978598727848253
CCOP(=S)(OCC)Oc1nc(Cl)n(C(C)C)n1,Isazofos,-3.658,log(mol/L),-3.658,log(mol/L),-,313.747,7,0,3.1887000000000016,1,0.00021978598727848253
CCOC(=O)C(c1c(O)c2ccccc2oc1=O)c1c(O)c2ccccc2oc1=O,ethyl biscoumacetate,-3.66,log(mol/L),-3.66,log(mol/L),548-00-5,408.36200000000014,8,2,3.005600000000002,1,0.00021877616239495518
COc1c2occc2cc2ccc(=O)oc12,methoxsalen,-3.66,log(mol/L),-3.66,log(mol/L),298-81-7,216.19199999999995,4,0,2.5478000000000005,1,0.00021877616239495518
NS(=O)(=O)c1cc(C(=O)O)c(NCc2ccco2)cc1Cl,Furosemide,-3.66,log(mol/L),-3.66,log(mol/L),54-31-9,330.749,5,3,1.8907,1,0.00021877616239495518
CNCCCN1c2ccccc2CCc2ccccc21,Desipramine,-3.66,log(mol/L),-3.66,log(mol/L),50-47-5,266.388,2,1,3.5328000000000026,1,0.00021877616239495518
CC(C)(C)c1ccccc1,t-Butylbenzene,-3.66,log(mol/L),-3.66,log(mol/L),98-06-6,134.22199999999998,0,0,2.9841000000000015,1,0.00021877616239495518
C#CCCCCCC,1-octyne,-3.66,log(mol/L),-3.66,log(mol/L),-,110.2,0,0,2.5900000000000007,1,0.00021877616239495518
CNCCCN1c2ccccc2CCc2ccccc21,Desipramine,-3.66,log(mol/L),-3.66,log(mol/L),-,266.388,2,1,3.5328000000000026,1,0.00021877616239495518
CC(C)(C)c1ccccc1,t-Butylbenzene,-3.66,log(mol/L),-3.66,log(mol/L),-,134.22199999999998,0,0,2.9841000000000015,1,0.00021877616239495518
C#CCCCCCC,1-octyne,-3.66,log(mol/L),-3.66,log(mol/L),629-05-0,110.2,0,0,2.5900000000000007,1,0.00021877616239495518
CCOC(=O)Cc1c(O)c2ccccc2oc1=O,ethyl biscoumacetate,-3.66,log(mol/L),-3.66,log(mol/L),548-00-5,248.23399999999998,5,1,1.6041999999999998,1,0.00021877616239495518
COc1c2occc2cc2ccc(=O)oc12,methoxsalen,-3.66,log(mol/L),-3.66,log(mol/L),-,216.19199999999995,4,0,2.5478000000000005,1,0.00021877616239495518
NS(=O)(=O)c1cc(C(=O)O)c(NCc2ccco2)cc1Cl,Furosemide,-3.66,log(mol/L),-3.66,log(mol/L),-,330.749,5,3,1.8907,1,0.00021877616239495518
CCOC(=O)C(c1c(O)c2ccccc2oc1=O)c1c(O)c2ccccc2oc1=O,ethyl biscoumacetate,-3.66,log(mol/L),-3.66,log(mol/L),-,408.36200000000014,8,2,3.005600000000002,1,0.00021877616239495518
COc1c2occc2cc2ccc(=O)oc12,methoxsalen,-3.664,log(mol/L),-3.664,log(mol/L),-,216.19199999999995,4,0,2.5478000000000005,1,0.0002167704104819694
O=C(CCCN1CCC(O)(c2ccc(Br)cc2)CC1)c1ccc(F)cc1,Bromperidol,90.0,mg/L,-3.669,log(mol/L),10457-90-6,420.3220000000002,3,1,4.5347000000000035,1,0.00021428906011200583
ClC(Cl)(Cl)C(Cl)(Cl)Cl,hexachloroethane,-3.67,log(mol/L),-3.67,log(mol/L),-,236.74,0,0,3.7268,1,0.00021379620895022324
O=C(O)CCCOc1ccc(Cl)cc1Cl,"2,4-db",-3.67,log(mol/L),-3.67,log(mol/L),94-82-6,249.09300000000002,2,1,3.237000000000002,1,0.00021379620895022324
CCc1ccccc1Br,1-Bromo-2-ethylbenzene,39.6,mg/L,-3.67,log(mol/L),1973-22-4,185.06399999999996,0,0,3.0115000000000016,1,0.00021379620895022324
ClC(Cl)(Cl)C(Cl)(Cl)Cl,hexachloroethane,-3.67,log(mol/L),-3.67,log(mol/L),67-72-1,236.74,0,0,3.7268,1,0.00021379620895022324
CCCCCC(O)C=CC1C(O)CC(=O)C1CCCCCCC(=O)O,Alprostadil,-3.67,log(mol/L),-3.67,log(mol/L),-,354.48700000000014,4,3,3.475100000000002,1,0.00021379620895022324
FC(F)(F)F,Tetrafluoromethane,18.8,mg/L,-3.67,log(mol/L),75-73-0,88.00300000000001,0,0,1.4756999999999998,1,0.00021379620895022324
c1ccc2nc3ccccc3cc2c1,acridine,-3.67,log(mol/L),-3.67,log(mol/L),260-94-6,179.22199999999998,1,0,3.3880000000000017,1,0.00021379620895022324
c1ccc2nc3ccccc3cc2c1,acridine,-3.67,log(mol/L),-3.67,log(mol/L),-,179.22199999999998,1,0,3.3880000000000017,1,0.00021379620895022324
CN1C(=O)c2cccnc2Oc2ccccc21,-,-3.672,log(mol/L),-3.672,log(mol/L),-,226.23499999999999,3,0,2.4639000000000006,1,0.0002128139045982711
Oc1c(Br)cc(Br)cc1Br,"2,4,6-Tribromophenol",70.0,mg/L,-3.674,log(mol/L),118-79-6,330.801,1,1,3.6797000000000004,1,0.00021183611352485022
FC(F)(F)F,-,1.27,log(mg/L),-3.675,log(mol/L),75-73-0,88.00300000000001,0,0,1.4756999999999998,1,0.00021134890398366476
CC1=C(CC(=O)O)c2cc(F)ccc2C1=Cc1ccc(S(C)=O)cc1,sulindac_form_I,210.015,?M/L,-3.678,log(mol/L),-,356.41800000000006,2,1,4.365500000000003,1,0.00020989398836235244
CC(C)(C)C(O)C(Oc1ccc(Cl)cc1)n1cncn1,TRIADIMENOL,0.062,g/L,-3.679,log(mol/L),55219-65-3,295.77,5,1,2.916100000000001,1,0.00020941124558508935
CC(C)(C)C(O)C(Oc1ccc(Cl)cc1)n1cncn1,-,1.792392,log(mg/L),-3.679,log(mol/L),89482-17-7,295.77,5,1,2.916100000000001,1,0.00020941124558508935
CC12C=CC(=O)C=C1CCC1C3CC(O)C(O)(C(=O)CO)C3(C)CC(O)C12F,triamcinolone,-3.68,log(mol/L),-3.68,log(mol/L),-,394.4390000000002,6,4,0.6204999999999998,1,0.00020892961308540387
Cc1ccc2nc(-c3ccc(N)cc3)sc2c1,2-(4-aminophenyl)-6-methyl-benzothiazole,-3.68,log(mol/L),-3.68,log(mol/L),92-36-4,240.33100000000002,3,1,3.8539200000000022,1,0.00020892961308540387
Cc1cc2nc3c(=O)[nH]c(=O)nc-3n(CC(O)C(O)C(O)CO)c2cc1C,riboflavin,-3.68,log(mol/L),-3.68,log(mol/L),83-88-5,376.36900000000014,9,5,-1.7235599999999989,1,0.00020892961308540387
Cc1ccc(S(=O)(=O)NC(=O)NN2CCCCCC2)cc1,tolazamide,-3.68,log(mol/L),-3.68,log(mol/L),1156-19-0,311.4070000000001,4,2,1.7739199999999995,1,0.00020892961308540387
CCC(C)CC,3-Methylpentane,-3.68,log(mol/L),-3.68,log(mol/L),-,86.178,0,0,2.442500000000001,1,0.00020892961308540387
CCSC(=O)N(CC(C)C)CC(C)C,butylate,-3.68,log(mol/L),-3.68,log(mol/L),2008-41-5,217.378,2,0,3.4735000000000023,1,0.00020892961308540387
CCSC(=O)N(CC(C)C)CC(C)C,butylate,-3.68,log(mol/L),-3.68,log(mol/L),-,217.378,2,0,3.4735000000000023,1,0.00020892961308540387
CCC(C)CC,3-Methylpentane,-3.68,log(mol/L),-3.68,log(mol/L),96-14-0,86.178,0,0,2.442500000000001,1,0.00020892961308540387
COP(=S)(OC)Oc1ccc([N+](=O)[O-])cc1,parathion methyl,-3.68,log(mol/L),-3.68,log(mol/L),298-00-0,263.21099999999996,6,0,2.4909,1,0.00020892961308540387
CCN1C(=O)c2ccccc2Oc2ccccc21,RTI 9,-3.68,log(mol/L),-3.68,log(mol/L),-,239.27399999999997,2,0,3.4590000000000023,1,0.00020892961308540387
Cc1ccc(S(=O)(=O)NC(=O)NN2CCCCCC2)cc1,tolazamide,-3.68,log(mol/L),-3.68,log(mol/L),-,311.4070000000001,4,2,1.7739199999999995,1,0.00020892961308540387
Cc1cc2nc3c(=O)[nH]c(=O)nc-3n(CC(O)C(O)C(O)CO)c2cc1C,riboflavin,-3.685,log(mol/L),-3.685,log(mol/L),-,376.36900000000014,9,5,-1.7235599999999989,1,0.00020653801558105292
CC12C=CC(=O)C=C1CCC1C3CC(O)C(O)(C(=O)CO)C3(C)CC(O)C12F,triamcinolone,-3.69,log(mol/L),-3.69,log(mol/L),124-94-7,394.4390000000002,6,4,0.6204999999999998,1,0.00020417379446695296
CC12CCC3C(CCC4=CC(=O)CCC43C)C1CCC2=O,androstenedione,-3.69,log(mol/L),-3.69,log(mol/L),63-05-8,286.415,2,0,4.087400000000003,1,0.00020417379446695296
CC12C=CC(=O)C=C1CCC1C3CC(O)C(O)(C(=O)CO)C3(C)CC(O)C12F,triamcinolone,-3.69,log(mol/L),-3.69,log(mol/L),-,394.4390000000002,6,4,0.6204999999999998,1,0.00020417379446695296
CC12CCC3C(CCC4=CC(=O)CCC43C)C1CCC2=O,androstenedione,-3.69,log(mol/L),-3.69,log(mol/L),-,286.415,2,0,4.087400000000003,1,0.00020417379446695296
CC(C(=O)O)c1cccc(Oc2ccccc2)c1,fenoprofen,200.349,?M/L,-3.698,log(mol/L),-,242.274,2,1,3.6670000000000016,1,0.00020044720273651613
Cc1cccc2ccccc12,1-methylnaphthalene,-3.7,log(mol/L),-3.7,log(mol/L),90-12-0,142.201,0,0,3.148220000000002,1,0.00019952623149688788
CCCCOc1cc(C(=O)NCCN(CC)CC)c2ccccc2n1,dibucaine,-3.7,log(mol/L),-3.7,log(mol/L),85-79-0,343.471,4,1,3.4853000000000023,1,0.00019952623149688788
CC(C(=O)O)c1cccc(C(=O)c2ccccc2)c1,Ketoprofen,-3.7,log(mol/L),-3.7,log(mol/L),22071-15-4,254.285,2,1,3.1057000000000015,1,0.00019952623149688788
Nc1ccc(S(=O)(=O)Nc2cnccn2)cc1,sulfapyrazine,-3.7,log(mol/L),-3.7,log(mol/L),116-44-9,250.28300000000004,5,2,0.8596000000000001,1,0.00019952623149688788
CC(C(=O)O)c1cccc(C(=O)c2ccccc2)c1,Ketoprofen,-3.7,log(mol/L),-3.7,log(mol/L),-,254.285,2,1,3.1057000000000015,1,0.00019952623149688788
CCCCOc1cc(C(=O)NCCN(CC)CC)c2ccccc2n1,dibucaine,-3.7,log(mol/L),-3.7,log(mol/L),-,343.471,4,1,3.4853000000000023,1,0.00019952623149688788
Cc1cccc2ccccc12,1-methylnaphthalene,-3.7,log(mol/L),-3.7,log(mol/L),-,142.201,0,0,3.148220000000002,1,0.00019952623149688788
C=CCC1(C(C)CCC)C(=O)NC(=S)NC1=O,thiamylal,-3.71,log(mol/L),-3.71,log(mol/L),-,254.355,3,2,1.5159999999999998,1,0.00019498445997580456
CCC(=O)N(c1ccccc1)C1(COC)CCN(CCc2cccs2)CC1,sufentanil,-3.71,log(mol/L),-3.71,log(mol/L),56030-54-7,386.56100000000015,4,0,4.214800000000004,1,0.00019498445997580456
CCC(=O)N(c1ccccc1)C1(COC)CCN(CCc2cccs2)CC1,sufentanil,-3.71,log(mol/L),-3.71,log(mol/L),-,386.56100000000015,4,0,4.214800000000004,1,0.00019498445997580456
CCCCC1C(=O)N(c2ccccc2)N(c2ccc(O)cc2)C1=O,oxyphenbutazone,-3.73,log(mol/L),-3.73,log(mol/L),129-20-4,324.38000000000005,3,1,3.493400000000002,1,0.00018620871366628676
CCCCC1C(=O)N(c2ccccc2)N(c2ccc(O)cc2)C1=O,oxyphenbutazone,-3.73,log(mol/L),-3.73,log(mol/L),-,324.38000000000005,3,1,3.493400000000002,1,0.00018620871366628676
O=C(O)c1cn(C2CC2)c2cc(N3CCNCC3)c(F)cc2c1=O,Ciprofloxacin,-3.73,log(mol/L),-3.73,log(mol/L),-,331.34700000000004,5,2,1.5833,1,0.00018620871366628676
C=CCCCCC,1-Heptene,-3.73,log(mol/L),-3.73,log(mol/L),-,98.189,0,0,2.752700000000001,1,0.00018620871366628676
CC1CCc2cc(F)cc3c(=O)c(C(=O)O)cn1c23,Flumequine,185.101,?M/L,-3.733,log(mol/L),-,261.252,3,1,2.346,1,0.0001849268618978078
CCCC(C)C,2-methylpentane,-3.74,log(mol/L),-3.74,log(mol/L),-,86.178,0,0,2.442500000000001,1,0.00018197008586099826
CC(C)(C)c1nnc(NS(=O)(=O)c2ccc(N)cc2)s1,glybuthiazole,-3.74,log(mol/L),-3.74,log(mol/L),-,312.42,6,2,2.2186000000000003,1,0.00018197008586099826
CCCC(C)C,2-methylpentane,-3.74,log(mol/L),-3.74,log(mol/L),107-83-5,86.178,0,0,2.442500000000001,1,0.00018197008586099826
CC(C)(C)c1nnc(NS(=O)(=O)c2ccc(N)cc2)s1,glybuthiazole,-3.74,log(mol/L),-3.74,log(mol/L),535-65-9,312.42,6,2,2.2186000000000003,1,0.00018197008586099826
CC12CCC(=O)C=C1CCC1C2CCC2(C)C(C(=O)CO)CCC12,deoxycorticosterone,-3.75,log(mol/L),-3.75,log(mol/L),64-85-7,330.46800000000013,3,1,3.6959000000000026,1,0.00017782794100389227
CCc1ccc(CC)cc1,"1,4-diethylbenzene",-3.75,log(mol/L),-3.75,log(mol/L),-,134.22199999999998,0,0,2.811400000000001,1,0.00017782794100389227
O=NN(c1ccccc1)c1ccccc1,diphenylnitrosamine,-3.75,log(mol/L),-3.75,log(mol/L),86-30-6,198.225,2,0,3.5061000000000018,1,0.00017782794100389227
CCc1ccc(CC)cc1,"1,4-diethylbenzene",-3.75,log(mol/L),-3.75,log(mol/L),105-05-5,134.22199999999998,0,0,2.811400000000001,1,0.00017782794100389227
CN1C(=O)CN=C(c2ccccc2)c2cc(Cl)ccc21,Diazepam,-3.754,log(mol/L),-3.754,log(mol/L),-,284.74600000000004,2,0,3.153800000000002,1,0.0001761976046411629
Cc1ccccc1C(C)C,2-Isopropyltoluene,-3.76,log(mol/L),-3.76,log(mol/L),-,134.22199999999998,0,0,3.118420000000002,1,0.00017378008287493763
Clc1cccc(C(Cl)(Cl)Cl)n1,nitrapyrin,-3.76,log(mol/L),-3.76,log(mol/L),-,230.909,1,0,3.5617,1,0.00017378008287493763
CN(C)C(=O)Nc1ccc(Cl)c(Cl)c1,diuron,-3.76,log(mol/L),-3.76,log(mol/L),330-54-1,233.09799999999998,1,1,3.0869000000000018,1,0.00017378008287493763
CN1C(=O)CN=C(c2ccccc2)c2cc(Cl)ccc21,Diazepam,-3.76,log(mol/L),-3.76,log(mol/L),-,284.74600000000004,2,0,3.153800000000002,1,0.00017378008287493763
CN1C(=O)CN=C(c2ccccc2)c2cc(Cl)ccc21,Diazepam,-3.76,log(mol/L),-3.76,log(mol/L),439-14-5,284.74600000000004,2,0,3.153800000000002,1,0.00017378008287493763
CCOP(=S)(OCC)Oc1cc(C)nc(C(C)C)n1,diazinon,-3.76,log(mol/L),-3.76,log(mol/L),333-41-5,304.35200000000003,6,0,3.5847200000000026,1,0.00017378008287493763
Clc1cccc(C(Cl)(Cl)Cl)n1,nitrapyrin,-3.76,log(mol/L),-3.76,log(mol/L),1929-82-4,230.909,1,0,3.5617,1,0.00017378008287493763
C[Si](Cn1cncn1)(c1ccc(F)cc1)c1ccc(F)cc1,Flusilazole,54.0,mg/L,-3.766,log(mol/L),85509-19-9,315.399,3,0,1.9885,1,0.00017139573075084254
CC1CC2C3CCC4=CC(=O)C=CC4(C)C3(F)C(O)CC2(C)C1(O)C(=O)CO,betamethasone,-3.77,log(mol/L),-3.77,log(mol/L),378-44-9,392.4670000000002,5,3,1.8957000000000002,1,0.00016982436524617443
Cc1ccc2ccccc2c1,2-methylnaphthalene,-3.77,log(mol/L),-3.77,log(mol/L),-,142.201,0,0,3.148220000000001,1,0.00016982436524617443
COC(=O)C(Cl)Cc1ccc(Cl)cc1,chlorfenprop-methyl,-3.77,log(mol/L),-3.77,log(mol/L),14437-17-3,233.09400000000002,2,0,2.6629000000000005,1,0.00016982436524617443
Cc1ccc2ccccc2c1,2-methylnaphthalene,-3.77,log(mol/L),-3.77,log(mol/L),91-57-6,142.201,0,0,3.148220000000001,1,0.00016982436524617443
Cc1ccc2ccccc2c1,2-Methylnapthalene,-3.77,log(mol/L),-3.77,log(mol/L),-,142.201,0,0,3.148220000000001,1,0.00016982436524617443
Cc1ccc(C(C)C)cc1,p-isopropyltoluene,-3.77,log(mol/L),-3.77,log(mol/L),99-87-6,134.222,0,0,3.1184200000000013,1,0.00016982436524617443
Cc1ccc(C(C)C)cc1,p-isopropyltoluene,-3.77,log(mol/L),-3.77,log(mol/L),-,134.222,0,0,3.1184200000000013,1,0.00016982436524617443
Cc1ccc(C(C)C)cc1,4-Isopropyltoluene,-3.77,log(mol/L),-3.77,log(mol/L),-,134.222,0,0,3.1184200000000013,1,0.00016982436524617443
Cc1cccc(Nc2ccccc2C(=O)O)c1C,mefenamic acid,-3.78,log(mol/L),-3.78,log(mol/L),61-68-7,241.29,2,2,3.7452400000000017,1,0.00016595869074375615
Cc1ccccc1N1C(=O)c2cc(S(N)(=O)=O)c(Cl)cc2NC1C,Metolazone,-3.78,log(mol/L),-3.78,log(mol/L),17560-51-9,365.8420000000001,4,2,2.714120000000001,1,0.00016595869074375615
CN(C)CCCOc1nn(Cc2ccccc2)c2ccccc12,Benzydamine,-3.78,log(mol/L),-3.78,log(mol/L),-,309.413,4,0,3.4151000000000016,1,0.00016595869074375615
Cc1ccccc1N1C(=O)c2cc(S(N)(=O)=O)c(Cl)cc2NC1C,Metolazone,-3.78,log(mol/L),-3.78,log(mol/L),-,365.8420000000001,4,2,2.714120000000001,1,0.00016595869074375615
CN1C(CCl)Nc2cc(Cl)c(S(N)(=O)=O)cc2S1(=O)=O,Methyclothiazide,-3.78,log(mol/L),-3.78,log(mol/L),-,360.2440000000001,5,2,0.5983000000000003,1,0.00016595869074375615
CC(C)(C)C(O)C(Oc1ccc(Cl)cc1)n1cncn1,TRIADIMENOL,49.0,mg/L,-3.781,log(mol/L),55219-65-3,295.77,5,1,2.916100000000001,1,0.00016557699634695277
CCN(CC)c1nc(Cl)nc(NC(C)C)n1,Ipazine,-3.785,log(mol/L),-3.785,log(mol/L),-,243.74200000000002,5,1,2.1914999999999996,1,0.00016405897731995388
CC(C)NCC(O)COc1cccc2[nH]ccc12,Pindolol,162.89,?M/L,-3.788,log(mol/L),-,248.32600000000002,3,3,1.9055999999999995,1,0.0001629296032639723
Cc1cccc(C)c1NC(=O)c1cc(S(N)(=O)=O)c(Cl)cc1O,Xipamide,-3.79,log(mol/L),-3.79,log(mol/L),-,354.81500000000005,4,3,2.5621400000000008,1,0.00016218100973589298