SMILES,NAME,Water solubility,UNIT {Water solubility},Solubility_log(mol/L),UNIT {Water solubility}.1,CASRN
S=C1NC(C(C(N1)=O)(C(C)CCC)CC)=O,thiopental,-3.36,log(mol/L),-3.36,log(mol/L),76-75-5
CCN1C2=NC(N(C)CCO)=CC=C2NC(=O)C3=CC=CN=C13,RTI 6,-3.36,log(mol/L),-3.36,log(mol/L),-
O=C(OCC)C(CC(OCC)=O)SP(OC)(OC)=S,malathion,-3.36,log(mol/L),-3.36,log(mol/L),121-75-5
CCCC(C)C1(CC)C(=O)NC(=S)NC1=O,thiopental,-3.36,log(mol/L),-3.36,log(mol/L),-
ClC1=CC=2S(=O)(=O)N=C(NC2C=C1)C,diazoxide,434.438,?M/L,-3.362,log(mol/L),-
CN(C)C1=NC(=NC(=N1)N(C)C)N(C)C,Altretamine,-3.364,log(mol/L),-3.364,log(mol/L),-
N1=CN=CN1CC(O)(C2=CC=C(F)C=C2)C3=CC=CC=C3F,FLUTRIAFOL (PP450),130.0,mg/L,-3.365,log(mol/L),76674-21-0
OC(CN1C=NC=N1)(C2=CC=C(F)C=C2)C3=CC=CC=C3F,-,2.113943,log(mg/L),-3.365,log(mol/L),76674-21-0
O(C1=CC=C2N=CC=C(C(O)C3N4CCC(C(C=C)C4)C3)C2=C1)C,quinidine,140.0,mg/L,-3.365,log(mol/L),56-54-2
OC1(CCCCCC1N2C=NC=N2)C3=CC=C(Cl)C=C3,-,2.09691,log(mg/L),-3.368,log(mol/L),129586-32-9
C1=CC(Cl)=CC=C1C2(O)CCCCCC2N3N=CN=C3,SSF-109 FUNGICIDE,125.0,mg/L,-3.368,log(mol/L),129586-32-9
OC(CN1C=NC=N1)(C2=CC=C(F)C=C2)C3=CC=CC=C3F,flutriafol,-3.37,log(mol/L),-3.37,log(mol/L),-
CCOC(=O)CC(SP(=S)(OC)OC)C(=O)OCC,malathion,-3.37,log(mol/L),-3.37,log(mol/L),-
OC1CCC2(C)C3CC(O)C4(C)C(C(C)CCC(O)=O)CCC4C3C(O)CC2C1,cholic acid,-3.37,log(mol/L),-3.37,log(mol/L),81-25-4
CCCC1=CC=CC=C1,Propylbenzene,-3.37,log(mol/L),-3.37,log(mol/L),-
C1=CC=C2SC(C(C)N(O)C(=O)N)=CC2=C1,Zileuton,-3.37,log(mol/L),-3.37,log(mol/L),-
N1=CN=CN1CC(O)(C2=CC=C(F)C=C2)C3=CC=CC=C3F,flutriafol,-3.37,log(mol/L),-3.37,log(mol/L),-
O=C1C2=C(N(C(C([H])([H])[H])([H])[H])C(=C1C(O[H])=O)[H])N=C(C(=C2[H])[H])C([H])([H])[H],nalidixic acid; Uronidix,-3.37,log(mol/L),-3.37,log(mol/L),-
O=C(OCC)C(CC(OCC)=O)SP(OC)(OC)=S,malathion,-3.37,log(mol/L),-3.37,log(mol/L),121-75-5
OC(C1=CC=C(F)C=C1)(C2=C(F)C=CC=C2)CN3C=NC=N3,flutriafol,-3.37,log(mol/L),-3.37,log(mol/L),76674-21-0
CCCC1=CC=CC=C1,n-Propylbenzene,-3.37,log(mol/L),-3.37,log(mol/L),103-65-1
C1(CN2CCC1CC2C(C3=CC=NC4=C3C=C(C=C4)OC)O)C=C,quinidine,-3.37,log(mol/L),-3.37,log(mol/L),56-54-2
CCN1C=C(C(O)=O)C(C=2C1=NC(C)=CC2)=O,nalidixic acid,-3.37,log(mol/L),-3.37,log(mol/L),389-08-2
C1(CCC)=CC=CC=C1,n-Propylbenzene,-3.37,log(mol/L),-3.37,log(mol/L),-
O=C1N2C3=C(C45C6N(CC4)CC=7C(C(C(OCC7)C1)C25)C6)C=CC=C3,strychnine,-3.37,log(mol/L),-3.37,log(mol/L),-
ClC1=C(C=C(C(=C1O)Cl)Cl)Cl,"2,3,5,6-Tetrachlorophenol",-3.37,log(mol/L),-3.37,log(mol/L),-
OC1=C(Cl)C(Cl)=CC(Cl)=C1Cl,"2,3,5,6-Tetrachlorophenol",-3.37,log(mol/L),-3.37,log(mol/L),-
OC(C1N2CC(C(C1)CC2)C=C)C3=C4C(=NC=C3)C=CC(OC)=C4,quinidine,-3.37,log(mol/L),-3.37,log(mol/L),56-54-2
CC1CN(CC(C)N1)C2=C(F)C3=C(C(=O)C(=CN3C4CC4)C(O)=O)C(N)=C2F,sparfloxacin,425.472,?M/L,-3.371,log(mol/L),-
FC(F)C(F)(F)OCC(CN1C=NC=N1)C2=C(Cl)C=C(Cl)C=C2,-,2.193125,log(mg/L),-3.378,log(mol/L),112281-77-3
ClC1=CC(Cl)=CC=C1C(CN2N=CN=C2)COC(F)(F)C(F)F,Tetraconazole,156.0,mg/L,-3.378,log(mol/L),112281-77-3
CC(C)OC(=O)NC1=CC=CC(Cl)=C1,chloropham,-3.38,log(mol/L),-3.38,log(mol/L),101-21-3
CC(C1=CC(N(=O)=O)=CC(N(=O)=O)=C1O)CC,dinoseb,-3.38,log(mol/L),-3.38,log(mol/L),88-85-7
CCC(C)C1=CC(=CC(N(=O)=O)=C1O)N(=O)=O,dinoseb,-3.38,log(mol/L),-3.38,log(mol/L),-
CC(C)OC(=O)NC1=CC=CC(Cl)=C1,chloropham,-3.38,log(mol/L),-3.38,log(mol/L),-
O=C1NC(CN1N=CC2=CC=C(N(=O)=O)O2)=O,nitrofurantoin,-3.38,log(mol/L),-3.38,log(mol/L),67-20-9
CCCCCCCCC(=O)OC,Methyl nonanoate,-3.38,log(mol/L),-3.38,log(mol/L),-
O=C(OC(C)C)NC1=CC=CC(Cl)=C1,chloropham,-3.38,log(mol/L),-3.38,log(mol/L),101-21-3
O=C1CN(N=CC2=CC=C(O2)N(=O)=O)C(=O)N1,nitrofurantoin,-3.38,log(mol/L),-3.38,log(mol/L),-
CCCCCCCC(OC)=O,methyl caprylate,-3.39,log(mol/L),-3.39,log(mol/L),111-11-5
O=C(OCC)CCCCCCC,ethyl caprylate,-3.39,log(mol/L),-3.39,log(mol/L),106-32-1
O=C(NCCCC)NS(=O)(=O)C1=CC=C(C=C1)C,tolbutamide,-3.39,log(mol/L),-3.39,log(mol/L),-
O=C(NS(C1=CC=C(C)C=C1)(=O)=O)NCCCC,tolbutamide,-3.39,log(mol/L),-3.39,log(mol/L),64-77-7
O=N(=O)C1=CC=C(C=C1)N(=O)=O,"1,4-Dinitrobenzene",-3.39,log(mol/L),-3.39,log(mol/L),-
S=C(SCC(Cl)=C)N(CC)CC,sulfallate,-3.39,log(mol/L),-3.39,log(mol/L),95-06-7
CCN(CC)C(=S)SCC(Cl)=C,sulfallate,-3.39,log(mol/L),-3.39,log(mol/L),-
CCCCCCCC(=O)OCC,Ethyl octanoate,-3.39,log(mol/L),-3.39,log(mol/L),-
CC(C)(C)C(O)C(OC1=CC=C(Cl)C=C1)N2C=NC=N2,-,2.079181,log(mg/L),-3.392,log(mol/L),55219-65-3
C1=CC(Cl)=CC=C1OC(N2N=CN=C2)C(O)C(C)(C)C,TRIADIMENOL,120.0,mg/L,-3.392,log(mol/L),55219-65-3
CN(CCC=C1C2=C(C=CC=C2)OCC3=C1C=CC=C3)C,Doxepin,-3.4,log(mol/L),-3.4,log(mol/L),1668-19-5
CCSC(=O)N(CC)C1CCCCC1,cycloate,-3.4,log(mol/L),-3.4,log(mol/L),-
CC1=CC(C)=CC(C)=C1,"1,3,5-trimethylbenzene",-3.4,log(mol/L),-3.4,log(mol/L),-
CC1=CC(=CC(=C1)C)C,"1,3,5-trimethylbenzene",-3.4,log(mol/L),-3.4,log(mol/L),-
O=C(SCC)N(C1CCCCC1)CC,cycloate,-3.4,log(mol/L),-3.4,log(mol/L),1134-23-2
O=C(O)CCCCCCCCC=C,undecylenic acid,-3.4,log(mol/L),-3.4,log(mol/L),112-38-9
CC1=CC(C)=CC(C)=C1,"1,3,5-trimethylbenzene",-3.4,log(mol/L),-3.4,log(mol/L),108-67-8
NC1=NC(O)=NC=2N=CNC12,isoguanine,-3.401,log(mol/L),-3.401,log(mol/L),-
CCNP(=S)(OC)OC(=CC(=O)OC(C)C)C,Propetamphos,-3.408,log(mol/L),-3.408,log(mol/L),-
CCOC1OC2=CC=C(C=C2C1(C)C)OS(C)(=O)=O,ethofumesate,-3.42,log(mol/L),-3.42,log(mol/L),26225-79-6
CCOC1OC2=CC=C(OS(C)(=O)=O)C=C2C1(C)C,ethofumesate,-3.42,log(mol/L),-3.42,log(mol/L),-
N1=CC(C)=C(OC)C(C)=C1CS(=O)C2=NC3=CC(OC)=CC=C3N2,Omeprazole,-3.42,log(mol/L),-3.42,log(mol/L),-
FC(F)(F)C(F)(F)Cl,Chloropentafluoroethane,58.0,mg/L,-3.425,log(mol/L),76-15-3
FC(F)(F)C(F)(F)Cl,-,1.76,log(mg/L),-3.429,log(mol/L),76-15-3
CC12CC(O)C3(F)C(CCC4=CC(=O)CCC43C)C1CCC2(O)C(=O)CO,fludrocortisone,-3.43,log(mol/L),-3.43,log(mol/L),-
CN(C)C(=O)NC1=CC=CC(=C1)C(F)(F)F,fluometuron,-3.43,log(mol/L),-3.43,log(mol/L),-
O=C1CCC2(C)C(CCC3C2(F)C(O)CC4(C)C3CCC4(O)C(CO)=O)=C1,fludrocortisone,-3.43,log(mol/L),-3.43,log(mol/L),127-31-1
O=C(NC1=CC(C(F)(F)F)=CC=C1)N(C)C,fluometuron,-3.43,log(mol/L),-3.43,log(mol/L),2164-17-2
CCCCCCCCCC(O)=O,caprinic acid,-3.44,log(mol/L),-3.44,log(mol/L),334-48-5
CN1C=NC(=C1SC2=NC=NC3=C2NC=N3)[N+](=O)[O-],Azathioprine,-3.44,log(mol/L),-3.44,log(mol/L),-
NS(=O)(=O)C1=CC(=CC=C1Cl)C2(O)NC(=O)C3=CC=CC=C23,Chlorthalidone,-3.45,log(mol/L),-3.45,log(mol/L),-
CC12CCC3C(CCC4=CC(=O)CCC34C)C1CCC2C(=O)CO,deoxycorticosterone,-3.45,log(mol/L),-3.45,log(mol/L),-
ClC1=C(C=C(C=C1)C2(NC(C3=C2C=CC=C3)=O)O)S(=O)(=O)N,Chlorthalidone,-3.45,log(mol/L),-3.45,log(mol/L),-
OC(CNC(CCC1=CC=CC=C1)C)C2=CC(=C(O)C=C2)C(=O)N,Labetalol,-3.45,log(mol/L),-3.45,log(mol/L),-
NS(=O)(=O)C1=CC(=CC=C1Cl)C2(O)NC(=O)C3=CC=CC=C23,Chlorthalidone,-3.451,log(mol/L),-3.451,log(mol/L),-
O=C(C=CC=CC1=CC=C2OCOC2=C1)N3CCCCC3,piperine,-3.46,log(mol/L),-3.46,log(mol/L),-
O=C(N1CCCCC1)C=CC=CC2=CC=3OCOC3C=C2,piperine,-3.46,log(mol/L),-3.46,log(mol/L),94-62-2
CCCC(C)C1(CC=C)C(=O)NC(=S)NC1=O,thiamylal,-3.46,log(mol/L),-3.46,log(mol/L),-
S=C1NC(C(C(N1)=O)(C(C)CCC)CC=C)=O,thiamylal,-3.46,log(mol/L),-3.46,log(mol/L),77-27-0
CN(C)C(=O)NC1=CC=C(C)C(Cl)=C1,Chlorotoluron,-3.46,log(mol/L),-3.46,log(mol/L),-
IC1=C(NC(I)=C1I)I,"2,3,4,5-tetraiodpyrrol",-3.46,log(mol/L),-3.46,log(mol/L),87-58-1
CC12C(CCC3C1C(CC4(C3CCC4=O)C)=O)=CC(=O)CC2,adrenosterone,-3.48,log(mol/L),-3.48,log(mol/L),382-45-6
O=N(=O)C1=C(Cl)C(Cl)=CC=C1,"2,3-Dichloronitrobenzene",-3.48,log(mol/L),-3.48,log(mol/L),-
OC1=CC=C(C2=CC=CC=C2)C=C1,p-phenylphenol,-3.48,log(mol/L),-3.48,log(mol/L),92-69-3
O=C(C1=CC=CC=C1)OCCCC,butyl benzoate,-3.48,log(mol/L),-3.48,log(mol/L),136-60-7
CC12CC(=O)C3C(CCC4=CC(=O)CCC34C)C1CCC2=O,adrenosterone,-3.48,log(mol/L),-3.48,log(mol/L),-
OC1=CC=C(C=C1)C2=CC=CC=C2,p-phenylphenol,-3.48,log(mol/L),-3.48,log(mol/L),-
C1=C(Br)C=C2C(C3=NC=CC=C3)=NCC(=O)NC2=C1,Bromazepam,-3.48,log(mol/L),-3.48,log(mol/L),-
C1C(=O)C=C2CCC3C4CCC(=O)C4(C)CC(=O)C3C2(C)C1,adrenosterone,-3.48,log(mol/L),-3.48,log(mol/L),-
CN(C)C(=O)NC1=CC=C(C)C(Cl)=C1,Chlortoluron,-3.483,log(mol/L),-3.483,log(mol/L),-
ClC1=C(C2(OC(CO2)CCC)CN3N=CN=C3)C=CC(Cl)=C1,Propiconazole,-3.49,log(mol/L),-3.49,log(mol/L),-
NC(CC1=CC=C(C=C1)N(CCCl)CCCl)C(O)=O,Melphalan,-3.49,log(mol/L),-3.49,log(mol/L),-
CCCC1COC(CN2C=NC=N2)(O1)C3=CC=C(Cl)C=C3Cl,Propiconazole,-3.493,log(mol/L),-3.493,log(mol/L),-
C1=CC(Cl)=CC=C1OC(N2N=CN=C2)C(O)C(C)(C)C,TRIADIMENOL,95.0,mg/L,-3.493,log(mol/L),55219-65-3
ClC1=CC(Cl)=CC=C1C2(CN3N=CN=C3)OC(CCC)CO2,Propiconazole,110.0,mg/L,-3.493,log(mol/L),60207-90-1
CCCC1COC(CN2C=NC=N2)(O1)C3=C(Cl)C=C(Cl)C=C3,-,2.041393,log(mg/L),-3.493,log(mol/L),60207-90-1
CC(C)NCC(O)COC1=CC=CC=2C=CC=CC12,Propranolol,320.772,?M/L,-3.494,log(mol/L),-
ClC1=CC=CC=C1C2=NCC(=O)NC3=CC=C(C=C23)N(=O)=O,Clonazepam,-3.499,log(mol/L),-3.499,log(mol/L),-
BrC1=CC=CC=C1Br,"1,2-dibromobenzene",-3.5,log(mol/L),-3.5,log(mol/L),583-53-9
ClC=1C(C2=NCC(=O)NC3=C2C=C([N+]([O-])=O)C=C3)=CC=CC1,Clonazepam,-3.5,log(mol/L),-3.5,log(mol/L),-
BrC1=CC=CC=C1Br,"1,2-dibromobenzene",-3.5,log(mol/L),-3.5,log(mol/L),-
C1(=C(C=CC=C1)Br)Br,o-Dibromobenzene,74.6,mg/L,-3.5,log(mol/L),583-53-9
BrC1=C(Br)C=CC=C1,"1,2-dibromobenzene",-3.5,log(mol/L),-3.5,log(mol/L),-
N(C1=CC=CC=C1)C2=CC=CC=C2,diphenylamine,-3.504,log(mol/L),-3.504,log(mol/L),-
C1CCCCCC1,cycloheptane,-3.51,log(mol/L),-3.51,log(mol/L),-
C1(NC2=CC=CC=C2)=CC=CC=C1,diphenylamine,-3.51,log(mol/L),-3.51,log(mol/L),122-39-4
O=S(=O)(NC1=NC=CC=N1)C2=CC=C(N)C=C2,sulfadiazine,-3.51,log(mol/L),-3.51,log(mol/L),68-35-9
O=S(NC1=NC=CC=N1)(C2=CC=C(N)C=C2)=O,sulfadiazine,-3.51,log(mol/L),-3.51,log(mol/L),68-35-9
O=C(NC1=CC(Cl)=C(Cl)C=C1)N(C)OC,linuron,-3.52,log(mol/L),-3.52,log(mol/L),330-55-2
BrC1=CC(=CC=C1)C,m-bromotoluene,-3.52,log(mol/L),-3.52,log(mol/L),-
C1CCCCCC1,cycloheptane,-3.52,log(mol/L),-3.52,log(mol/L),291-64-5
C1CCCCCC1,cycloheptane,-3.52,log(mol/L),-3.52,log(mol/L),-
CC1=CC=CC=C1Cl,o-chlorotoluene,-3.52,log(mol/L),-3.52,log(mol/L),95-49-8
CC1=CC=CC=C1Cl,2-Chlorotoluene,-3.52,log(mol/L),-3.52,log(mol/L),-
CC1=CC(Br)=CC=C1,m-bromotoluene,-3.52,log(mol/L),-3.52,log(mol/L),591-17-3
C1(=CC=CC(Br)=C1)C,m-bromotoluene,51.3,mg/L,-3.523,log(mol/L),591-17-3
O=C(C1=CC=C(Br)C=C1)O,P-BROMOBENZOIC ACID,60.0,mg/L,-3.525,log(mol/L),586-76-5
NS(=O)(=O)C1=CC2=C(NC(NS2(=O)=O)C(Cl)Cl)C=C1Cl,trichloromethiazide_form_II,295.843,?M/L,-3.529,log(mol/L),-
CCCCN(CC)C(=O)SCCC,Pebulate,-3.53,log(mol/L),-3.53,log(mol/L),-
C1C2=CC=CC=C2N(CCF)C(=O)C3=CC=CC=C13,RTI 7,-3.535,log(mol/L),-3.535,log(mol/L),-
CC(C)C1=CC=C(NC(N(C)C)=O)C=C1,isoproturon,-3.536,log(mol/L),-3.536,log(mol/L),-
CCCC1C(=O)N2N(C1=O)C3=CC(C)=CC=C3N=C2N(C)C,Apazone,-3.538,log(mol/L),-3.538,log(mol/L),-
O=N(C=1C=2C=CC=CC2C=CC1)=O,1-nitronaphthalene,-3.54,log(mol/L),-3.54,log(mol/L),86-57-7
O=N(=O)C1=CC=CC=2C=CC=CC12,1-Nitronapthalene,-3.54,log(mol/L),-3.54,log(mol/L),-
CC1=CC=C2N=C(N(C)C)N3C(=O)C(CCC)C(=O)N3C2=C1,Apazone,-3.54,log(mol/L),-3.54,log(mol/L),-
BrC1=CC(Br)=CC=C1,"1,3-dibromobenzene",-3.54,log(mol/L),-3.54,log(mol/L),108-36-1
CC(C)C1=CC=C(NC(N(C)C)=O)C=C1,isoproturon,-3.54,log(mol/L),-3.54,log(mol/L),34123-59-6
BrC1=CC(=CC=C1)Br,"1,3-dibromobenzene",-3.54,log(mol/L),-3.54,log(mol/L),-
O=S(=O)(NC1=NC=CC=N1)C2=CC=C(N)C=C2,sulfadiazine,-3.54,log(mol/L),-3.54,log(mol/L),-
BrC1=CC=CC(Br)=C1,"1,3-dibromobenzene",-3.54,log(mol/L),-3.54,log(mol/L),-
ClC1=CC=CC=C1I,o-Chloroiodobenzene,-3.54,log(mol/L),-3.54,log(mol/L),-
C1(=CC=CC(Br)=C1)Br,m-Dibromobenzene,67.5,mg/L,-3.543,log(mol/L),108-36-1
O=C1N(N=CC=2OC(N(=O)=O)=CC2)CC(=O)N1,nitrofurantoin,-3.55,log(mol/L),-3.55,log(mol/L),-
CCNC1=NC(NC(C)C)=NC(Cl)=N1,atrazine,-3.55,log(mol/L),-3.55,log(mol/L),1912-24-9
CC(C)(C)CC,"2,2-Dimethylbutane",-3.55,log(mol/L),-3.55,log(mol/L),75-83-2
O=C(O)CCCCCCCCCC,undedecanoic acid,-3.55,log(mol/L),-3.55,log(mol/L),112-37-8
ClC1=CC=CC(I)=C1,m-Chloroiodobenzene,-3.55,log(mol/L),-3.55,log(mol/L),-
C(CC)(C)(C)C,"2,2-Dimethylbutane",-3.55,log(mol/L),-3.55,log(mol/L),-
CCC(C)(C)C,"2,2-Dimethylbutane",-3.55,log(mol/L),-3.55,log(mol/L),-
NC1=C(Br)C=CC(N(=O)=O)=C1,"Benzenamine, 2-bromo-5-nitro-",60.0,mg/L,-3.558,log(mol/L),10403-47-1
S(=O)(=O)(N)C=1C(OC2=CC=CC=C2)=C(NCCCC)C=C(C1)C(O)=O,Bumetanide,-3.56,log(mol/L),-3.56,log(mol/L),-
CCN(CC)C1=C(C=C(C(N)=C1N(=O)=O)C(F)(F)F)N(=O)=O,Nitramine,-3.561,log(mol/L),-3.561,log(mol/L),-
CCN(CC)CCNC(=O)C1=CC(=C(C=C1OC)N)Cl,Metoclopramide,271.981,?M/L,-3.565,log(mol/L),-
O=C(N(CC)CC)C(OC1=CC=CC2=C1C=CC=C2)C,napropamide,-3.57,log(mol/L),-3.57,log(mol/L),15299-99-7
CCN(CC)C(=O)C(C)OC1=CC=CC=2C=CC=CC12,napropamide,-3.57,log(mol/L),-3.57,log(mol/L),-
COC1=CC(=CC(OC)=C1O)C2C3C(COC3=O)C(OC4OC5COC(C)OC5C(O)C4O)C6=CC=7OCOC7C=C26,"Etoposide (148-167,25mg/ml)",-3.571,log(mol/L),-3.571,log(mol/L),-
NC1=NC=2NC=NC2C(=O)N1,Guanine,-3.583,log(mol/L),-3.583,log(mol/L),-
CC1CC2=CC=CC=C2N1NC(=O)C3=CC=C(Cl)C(=C3)S(N)(=O)=O,Indapamide,-3.586,log(mol/L),-3.586,log(mol/L),-
ClC1=C(Cl)C=C(Cl)C=C1,"1,2,4-trichlorobenzene",-3.59,log(mol/L),-3.59,log(mol/L),120-82-1
C1C(O)CC2CCC3C4CCC(=O)C4(C)CC(O)C3C2(C)C1,hydroxyisoandrosterone,-3.59,log(mol/L),-3.59,log(mol/L),514-17-0
ClC1=CC=C(Cl)C(Cl)=C1,"1,2,4-trichlorobenzene",-3.59,log(mol/L),-3.59,log(mol/L),-
N1=CN=CN1CC(C2=C(Cl)C=C(Cl)C=C2)CCC,Penconazole,73.0,mg/L,-3.59,log(mol/L),66246-88-6
OC1CC2CCC3C4CCC(C4(CC(C3C2(CC1)C)O)C)=O,hydroxyisoandrosterone,-3.59,log(mol/L),-3.59,log(mol/L),514-17-0
C1=CC(N)=CC=C1S(=O)(=O)N(C(=O)C)C=2ON=C(C)C2C,acetyl sulfisoxazole,-3.59,log(mol/L),-3.59,log(mol/L),80-74-0
O=S1(C2=CC(S(N)(=O)=O)=C(C(F)(F)F)C=C2NC(CC3=CC=CC=C3)N1)=O,bendroflumethiazide,-3.59,log(mol/L),-3.59,log(mol/L),73-48-3
ClC1=C(C=C(C=C1)C(=O)NN2C(CC3=C2C=CC=C3)C)S(=O)(=O)N,Indapamide,-3.59,log(mol/L),-3.59,log(mol/L),-
O=C(C1=CC=CC=C1O)NC2=CC=CC=C2,salicylanilide,-3.59,log(mol/L),-3.59,log(mol/L),87-17-2
C1=CC=CC=C1NC(=O)C2=C(O)C=CC=C2,salicylanilide,-3.59,log(mol/L),-3.59,log(mol/L),-
O=S(N(C(C)=O)C1=C(C)C(C)=NO1)(C2=CC=C(C=C2)N)=O,acetyl sulfisoxazole,-3.59,log(mol/L),-3.59,log(mol/L),80-74-0
NS(=O)(=O)C1=CC2=C(NC(CC3=CC=CC=C3)NS2(=O)=O)C=C1C(F)(F)F,bendroflumethiazide,-3.59,log(mol/L),-3.59,log(mol/L),-
CCCC(CN1C=NC=N1)C2=C(Cl)C=C(Cl)C=C2,-,1.863323,log(mg/L),-3.59,log(mol/L),66246-88-6
CC(=O)N(S(=O)C1=CC=C(N)C=C1)C=2ON=C(C)C2C,acetyl sulfisoxazole,-3.59,log(mol/L),-3.59,log(mol/L),-
CC1CC2C3CCC4=CC(=O)C=CC4(C)C3(F)C(O)CC2(C)C1(O)C(=O)CO,Dexamethasone,-3.59,log(mol/L),-3.59,log(mol/L),-
CON(C)C(=O)NC1=CC=C(Cl)C(Cl)=C1,linuron,-3.592,log(mol/L),-3.592,log(mol/L),-
CC(CC1=CC=C(C=C1)C(C)C(O)=O)C,Ibuprofen,254.455,?M/L,-3.594,log(mol/L),-
O=C(C1=CN(C2CC2)C3=C(C=C(F)C(N4CCNCC4)=C3)C1=O)O,Ciprofloxacin,253.219,?M/L,-3.597,log(mol/L),-
ClC1=CC=CC=C1C=2C3=CC(Cl)=CC=C3NC(=O)C(N2)O,Lorazepam,-3.6,log(mol/L),-3.6,log(mol/L),846-49-1
ClC1=CC2=C(N3C(=NN=C3C)CN=C2C4=CC=CC=C4)C=C1,Alprazolam,-3.6,log(mol/L),-3.6,log(mol/L),-
CN1CCN(CC1)C2=C(C=C3C(N(C=C(C(=O)O)C3=O)C4=CC=C(C=C4)F)=C2)F,difloxacin,251.311,?M/L,-3.6,log(mol/L),-
C1=CC=CC2=C1C=CC=C2,Naphthalene,-3.6,log(mol/L),-3.6,log(mol/L),91-20-3
C1=CC=C2C=CC=CC2=C1,Napthalene,-3.6,log(mol/L),-3.6,log(mol/L),-
C12=CC=CC=C1C=CC=C2,Naphthalene,-3.6,log(mol/L),-3.6,log(mol/L),-
OC1N=C(C2=CC=CC=C2Cl)C3=CC(Cl)=CC=C3NC1=O,Lorazepam,-3.6,log(mol/L),-3.6,log(mol/L),-
OC1N=C(C2=CC=CC=C2Cl)C3=CC(Cl)=CC=C3NC1=O,Lorazepam,-3.604,log(mol/L),-3.604,log(mol/L),-
CCN1C=C(C(=O)C=2C=CC(=NC12)C)C(=O)O,nalidixic_acid,245.393,?M/L,-3.61,log(mol/L),-
O=C(C(C)(C)C)C(N1C=NC=N1)OC2=CC=C(Cl)C=C2,triadimefon,-3.61,log(mol/L),-3.61,log(mol/L),43121-43-3
OC1=C(I)C=C(C#N)C=C1I,Ioxynil,-3.61,log(mol/L),-3.61,log(mol/L),1689-83-4
CC(C)(C)C(=O)C(OC1=CC=C(Cl)C=C1)N2C=NC=N2,triadimefon,-3.61,log(mol/L),-3.61,log(mol/L),-
OC1=C(I)C=C(C#N)C=C1I,Ioxynil,-3.61,log(mol/L),-3.61,log(mol/L),-
CCC1COC(CN2C=NC=N2)(O1)C3=C(Cl)C=C(Cl)C=C3,-,1.90309,log(mg/L),-3.613,log(mol/L),60207-93-4
CC(C)(C)C(=O)C(OC1=CC=C(Cl)C=C1)N2C=NC=N2,triadimefon,71.5,mg/L,-3.614,log(mol/L),43121-43-3
CC(C)(C)C(=O)C(OC1=CC=C(Cl)C=C1)N2C=NC=N2,-,1.854306,log(mg/L),-3.614,log(mol/L),43121-43-3
OC1=C(O)C=C(C=C1)C2CC(C3=C(O)C=C(O)C=C3O2)=O,eriodictyol,-3.62,log(mol/L),-3.62,log(mol/L),552-58-9
CC(C)NCC(O)COC1=CC=CC=2C=CC=CC12,Propranolol,-3.62,log(mol/L),-3.62,log(mol/L),-
O=C(C1=CC=2NC(=NC2C=C1)NC(OC)=O)C3=CC=CC=C3,mebendazole,-3.62,log(mol/L),-3.62,log(mol/L),-
OC1=CC(O)=C2C(=O)CC(OC2=C1)C3=CC=C(O)C(O)=C3,eriodictyol,-3.62,log(mol/L),-3.62,log(mol/L),-
N1(C2=C(CCC3=CC=CC=C13)C=CC=C2)CCCNC,Desipramine,235.682,?M/L,-3.628,log(mol/L),-
BrC1=CC=C(Cl)C=C1,1-bromo-4-chlorobenzene,-3.63,log(mol/L),-3.63,log(mol/L),106-39-8
CCCCCCCCCCO,1-decanol,-3.63,log(mol/L),-3.63,log(mol/L),112-30-1
C1(=CC=C(C=C1)Br)Cl,p-Bromochlorobenzene,44.9,mg/L,-3.63,log(mol/L),106-39-8
C1(=C(C=CC=C1)Br)Cl,2-BROMOCHLOROBENZENE,44.9,mg/L,-3.63,log(mol/L),694-80-4
ClC1=CC=C(Br)C=C1,p-Chlorobromobenzene,-3.63,log(mol/L),-3.63,log(mol/L),-
CCCCCCCCCCO,1-decanol,-3.63,log(mol/L),-3.63,log(mol/L),-
BrC1=CC=C(C=C1)Cl,1-bromo-4-chlorobenzene,-3.63,log(mol/L),-3.63,log(mol/L),-
CCC1CCOC(CN2C=NC=N2)(O1)C3=CC=C(Cl)C=C3Cl,"1-[[2-(2,4-DICHLOROPHENYL)-4-ETHYL-1,3-DIOXOLAN-",80.0,mg/L,-3.631,log(mol/L),60207-93-4
CCC1CCOC(CN2C=NC=N2)(O1)C3=CC=C(Cl)C=C3Cl,-,80.0,mg/L,-3.631,log(mol/L),60207-93-4
COC1=CC=2C(N)=NC(=NC2C(OC)=C1OC)N3CCN(CC3)C(=O)OCC(C)(C)O,Trimazosin,-3.638,log(mol/L),-3.638,log(mol/L),-
S=P(OCC)(OCC)OC1=NC(C(C)C)=NC(C)=C1,diazinon,-3.64,log(mol/L),-3.64,log(mol/L),333-41-5
COC1=C(OC)C(OC)=C2N=C(N3CCN(C(=O)OCC(O)(C)C)CC3)N=C(N)C2=C1,Trimazosin,-3.64,log(mol/L),-3.64,log(mol/L),-
CCOP(=S)(OCC)OC1=CC(C)=NC(=N1)C(C)C,diazinon,-3.64,log(mol/L),-3.64,log(mol/L),-
O=C1C=CC2(C)C(CCC3C2(F)C(O)CC4(C)C3CC(C)C4(O)C(CO)=O)=C1,Dexamethasone,-3.64,log(mol/L),-3.64,log(mol/L),50-02-2
CC(CCC(O)=O)C1CCC2C3C(O)CC4CC(O)CCC4(C)C3CCC12C,chenodeoxycholic acid,-3.64,log(mol/L),-3.64,log(mol/L),474-25-9
C1(=O)C=C2CCC3C4CC(C)C(O)(C(=O)CO)C4(C)CC(O)C3(F)C2(C)C=C1,Dexamethasone,-3.64,log(mol/L),-3.64,log(mol/L),-
C(C(C)C)(C)C,"2,3-Dimethylbutane",-3.65,log(mol/L),-3.65,log(mol/L),-
CC1=C(C)C=C2N=C3C(=O)NC(=O)N=C3N(CC(O)C(O)C(O)CO)C2=C1,Riboflavine,-3.65,log(mol/L),-3.65,log(mol/L),-
CC(C)C(C)C,"2,3-Dimethylbutane",-3.65,log(mol/L),-3.65,log(mol/L),-
CCOP(=S)(OCC)OC1=NN(C(C)C)C(Cl)=N1,-,1.838849,log(mg/L),-3.658,log(mol/L),42509-80-8
CCOP(=S)(OCC)OC1=NN(C(C)C)C(Cl)=N1,Isazofos,69.0,mg/L,-3.658,log(mol/L),42509-80-8
CCOP(=S)(OCC)OC=1N=C(Cl)N(N1)C(C)C,Isazofos,-3.658,log(mol/L),-3.658,log(mol/L),-
C1=CC=C2OC(=O)C(C(C(=O)OCC)C3=C(O)C4=CC=CC=C4OC3=O)=C(O)C2=C1,ethyl biscoumacetate,-3.66,log(mol/L),-3.66,log(mol/L),548-00-5
COC1=C2OC(=O)C=CC2=CC3=C1OC=C3,methoxsalen,-3.66,log(mol/L),-3.66,log(mol/L),298-81-7
O=C(C1=CC(S(N)(=O)=O)=C(Cl)C=C1NCC2=CC=CO2)O,Furosemide,-3.66,log(mol/L),-3.66,log(mol/L),54-31-9
CNCCCN1C2=C(CCC3=C1C=CC=C3)C=CC=C2,Desipramine,-3.66,log(mol/L),-3.66,log(mol/L),50-47-5
CC(C1=CC=CC=C1)(C)C,t-Butylbenzene,-3.66,log(mol/L),-3.66,log(mol/L),98-06-6
C(CCC)CCC#C,1-octyne,-3.66,log(mol/L),-3.66,log(mol/L),-
CNCCCN1C2=CC=CC=C2CCC3=CC=CC=C13,Desipramine,-3.66,log(mol/L),-3.66,log(mol/L),-
CC(C)(C)C1=CC=CC=C1,t-Butylbenzene,-3.66,log(mol/L),-3.66,log(mol/L),-
C#CCCCCCC,1-octyne,-3.66,log(mol/L),-3.66,log(mol/L),629-05-0
O=C1C(CC(OCC)=O)=C(O)C2=CC=CC=C2O1,ethyl biscoumacetate,-3.66,log(mol/L),-3.66,log(mol/L),548-00-5
O1C2=C(C(=C3C(OC(=O)C(=C3[H])[H])=C2OC([H])([H])[H])[H])C(=C1[H])[H],methoxsalen,-3.66,log(mol/L),-3.66,log(mol/L),-
ClC1=C(C=C(C(=C1)NCC2=CC=CO2)C(=O)O)S(=O)(=O)N,Furosemide,-3.66,log(mol/L),-3.66,log(mol/L),-
CCCCCCC#C,1-octyne,-3.66,log(mol/L),-3.66,log(mol/L),-
ClC1=C(S(=O)(=O)N)C=C(C(NCC=2OC=CC2)=C1)C(O)=O,Furosemide,-3.66,log(mol/L),-3.66,log(mol/L),-
O1C(=O)C(C(C2=C(O)C=3C(OC2=O)=CC=CC3)C(OCC)=O)=C(O)C=4C1=CC=CC4,ethyl biscoumacetate,-3.66,log(mol/L),-3.66,log(mol/L),-
COC=1C=2OC=CC2C=C3C=CC(=O)OC13,methoxsalen,-3.664,log(mol/L),-3.664,log(mol/L),-
C1=CC(F)=CC=C1C(=O)CCCN2CCC(O)(C3=CC=C(Br)C=C3)CC2,Bromperidol,90.0,mg/L,-3.669,log(mol/L),10457-90-6
ClC(Cl)(Cl)C(Cl)(Cl)Cl,hexachloroethane,-3.67,log(mol/L),-3.67,log(mol/L),-
ClC1=C(C=CC(Cl)=C1)OCCCC(O)=O,"2,4-db",-3.67,log(mol/L),-3.67,log(mol/L),94-82-6
CCC1=CC=CC=C1Br,1-Bromo-2-ethylbenzene,39.6,mg/L,-3.67,log(mol/L),1973-22-4
ClC(Cl)(Cl)C(Cl)(Cl)Cl,hexachloroethane,-3.67,log(mol/L),-3.67,log(mol/L),67-72-1