SMILES,NAME,Water solubility,UNIT {Water solubility},Solubility_log(mol/L),UNIT {Water solubility}.1,CASRN
CSC1=NC(=NC(=N1)N(C)C)N(C)C,Simetryn,-2.676,log(mol/L),-2.676,log(mol/L),-
O=C1N(C2CCC(=O)NC2=O)C(=O)C3=CC=CC=C13,Thalidomide,-2.676,log(mol/L),-2.676,log(mol/L),-
C(=C)CCC,1-pentene,-2.68,log(mol/L),-2.68,log(mol/L),-
C=12C=3C=CC=NC3C=CC1C=CC=N2,"1,7-phenantroline",-2.68,log(mol/L),-2.68,log(mol/L),230-46-6
ClC(Cl)C1NS(C2=CC(=C(C=C2N1)Cl)S(N)(=O)=O)(=O)=O,trichlormethiazide,-2.68,log(mol/L),-2.68,log(mol/L),133-67-5
CC(C)N1C(C2=CC=CC=C2NS1(=O)=O)=O,bentazon,-2.68,log(mol/L),-2.68,log(mol/L),25057-89-0
NS(=O)(=O)C1=CC2=C(NC(NS2(=O)=O)C(Cl)Cl)C=C1Cl,trichlormethiazide,-2.68,log(mol/L),-2.68,log(mol/L),-
C=CCCC,1-pentene,-2.68,log(mol/L),-2.68,log(mol/L),109-67-1
C=CCCC=C,"1,5-hexadiene",-2.68,log(mol/L),-2.68,log(mol/L),592-42-7
C=CCCC=C,"1,5-hexadiene",-2.68,log(mol/L),-2.68,log(mol/L),-
BrC(CC)(CC)C(=O)NC(=O)N,carbromal,-2.68,log(mol/L),-2.68,log(mol/L),-
O=C(NC(=O)C(Br)(CC)CC)N,carbromal,-2.68,log(mol/L),-2.68,log(mol/L),-
C1=CN=C2C(=C1)C=CC=3N=CC=CC23,"1,7-phenantroline",-2.68,log(mol/L),-2.68,log(mol/L),-
C(CC=C)C=C,"1,5-hexadiene",-2.68,log(mol/L),-2.68,log(mol/L),-
O=S(=O)(N)C1=C(C=C2NC(NS(=O)(=O)C2=C1)C(Cl)Cl)Cl,trichlormethiazide,-2.68,log(mol/L),-2.68,log(mol/L),-
CCC(Br)(CC)C(=O)NC(N)=O,carbromal,-2.68,log(mol/L),-2.68,log(mol/L),-
BrC(CC)(CC)C(NC(N)=O)=O,carbromal,-2.68,log(mol/L),-2.68,log(mol/L),77-65-6
CCCC=C,1-pentene,-2.68,log(mol/L),-2.68,log(mol/L),-
O=C1NC(=O)CCC1N2C(=O)C=3C(C2=O)=CC=CC3,Thalidomide,-2.68,log(mol/L),-2.68,log(mol/L),-
NC1=CC=C(S(NC2=NC=CS2)(=O)=O)C=C1,Sulfathiazole,2045.72,?M/L,-2.689,log(mol/L),-
CC(NC1=CC=C(N(=O)=O)C=C1)=O,4-nitroacetanilide,-2.69,log(mol/L),-2.69,log(mol/L),104-04-1
ClC(C(C)(Cl)C)C,"2,3-dichloro-2-methylbutane",-2.69,log(mol/L),-2.69,log(mol/L),507-45-9
CC(NC1=CC=C(N(=O)=O)C=C1)=O,4-nitroacetanilide,-2.692,log(mol/L),-2.692,log(mol/L),-
FC1=C(C=CC=C1)Br,1-Bromo-2-fluorobenzene,353.0,mg/L,-2.695,log(mol/L),1072-85-1
CCC1(C(=O)NC(=O)NC1=O)C2=CCC3CCC2C3,reposal,-2.696,log(mol/L),-2.696,log(mol/L),-
ClC1=CC(Cl)=C(NS(=O)(=O)C)C=C1N2N=C(C)N(C(F)F)C2=O,Sulfentrazone,780.0,mg/L,-2.696,log(mol/L),122836-35-5
CC1=NN(C(=O)N1C(F)F)C2=C(Cl)C=C(Cl)C(NS(C)(=O)=O)=C2,-,2.892095,log(mg/L),-2.696,log(mol/L),122836-35-5
O=C(O)C1=CC=CC(Br)=C1,m-Bromobenzoic acid,402.0,mg/L,-2.699,log(mol/L),585-76-2
C1=CC(O)=C(O)C=2OCC3(O)CC4=CC(=O)C(O)=CC4=C3C21,hematein,-2.7,log(mol/L),-2.7,log(mol/L),-
O=C(O)CCCCCCCCCCN,11-aminoundecanoic acid,-2.7,log(mol/L),-2.7,log(mol/L),2432-99-7
OC12CC=3C(=C1C4=C(OC2)C(=C(C=C4)O)O)C=C(O)C(C3)=O,hematein,-2.7,log(mol/L),-2.7,log(mol/L),475-25-2
O=S(NC1=CC=CC=N1)(C2=CC=C(N)C=C2)=O,sulfapyridine,-2.7,log(mol/L),-2.7,log(mol/L),144-83-2
CC(Cl)C(Cl)C,"2,3-dichlorobutane",-2.7,log(mol/L),-2.7,log(mol/L),7581-97-7
FC1=CC=CC=C1Br,o-Fluorobromobenzene,-2.7,log(mol/L),-2.7,log(mol/L),-
BrC1=C(C=CC=C1)F,o-Fluorobromobenzene,-2.7,log(mol/L),-2.7,log(mol/L),-
NC1=CC=C(C=C1)C2=CC=C(N)C=C2,p-benzidine,-2.7,log(mol/L),-2.7,log(mol/L),92-87-5
NC1=CC=C(C=C1)C2=CC=C(N)C=C2,"p,p'-Biphenyldiamine",-2.7,log(mol/L),-2.7,log(mol/L),-
CCCCCCC(OCC)=O,ethyl heptylate,-2.71,log(mol/L),-2.71,log(mol/L),106-30-9
NC1=CC=C(C=C1)C2=CC=C(N)C=C2,p-benzidine,-2.71,log(mol/L),-2.71,log(mol/L),-
C1=CC(OCC)=CC=C1C(=O)OCCN(CC)CC,parethoxycaine,-2.71,log(mol/L),-2.71,log(mol/L),-
SC1=CN=C2N=CN=CC2=N1,7-mercaptopteridine,-2.71,log(mol/L),-2.71,log(mol/L),-
C1=CC(OCC)=CC=C1C(=O)OCCN(CC)CC,parethoxycaine,-2.71,log(mol/L),-2.71,log(mol/L),94-23-5
O=C(NCCCC)NS(=O)(=O)C1=CC=C(N)C=C1,carbutamide,-2.71,log(mol/L),-2.71,log(mol/L),-
S=C1C=NC2=CN=CN=C2N1,7-mercaptopteridine,-2.71,log(mol/L),-2.71,log(mol/L),81451-15-2
OC1=CC=C(C(OCCCC)=O)C=C1,butyl-p-hydroxybenzoate,-2.72,log(mol/L),-2.72,log(mol/L),94-26-8
CCCCCCl,1-Chloropentane,-2.73,log(mol/L),-2.73,log(mol/L),-
C(C)(C)C=C,3-Methyl-1-Butene,-2.73,log(mol/L),-2.73,log(mol/L),-
OC(C1=CC=CC=C1I)=O,o-iodobenzoic acid,-2.73,log(mol/L),-2.73,log(mol/L),88-67-5
CC(C)C=C,3-Methyl-1-Butene,-2.73,log(mol/L),-2.73,log(mol/L),-
O=C(N(C1=C(C)C=CC=C1CC)C(C)COC)CCl,metolachlor,-2.73,log(mol/L),-2.73,log(mol/L),51218-45-2
CCCCCCl,1-Chloropentane,-2.73,log(mol/L),-2.73,log(mol/L),543-59-9
C(C)C(=C)C,2-Methyl-1-Butene,-2.73,log(mol/L),-2.73,log(mol/L),-
CCC(=C)C,2-Methyl-1-Butene,-2.73,log(mol/L),-2.73,log(mol/L),-
CCC1=CC=CC(C)=C1N(C(C)COC)C(=O)CCl,metolachlor,-2.73,log(mol/L),-2.73,log(mol/L),-
S(=O)(=O)(NC1=NC(C)=CC(=N1)C)C2=CC=C(N)C=C2,Sulfamethazine,1851.55,?M/L,-2.732,log(mol/L),-
FC(F)(Cl)C(F)(F)Cl,"1,2-dichlorotetrafluoroethane",-2.74,log(mol/L),-2.74,log(mol/L),-
O=C1N(C)C(C(C(N1)=O)(C2=CCCCC2)C)=O,hexabarital,-2.74,log(mol/L),-2.74,log(mol/L),56-29-1
O=C(OCC(COC(=O)NCCCC)(C)CCC)N,Tybamate,-2.74,log(mol/L),-2.74,log(mol/L),-
CCCCCCC(OCC)=O,Ethyl heptanoate,-2.74,log(mol/L),-2.74,log(mol/L),-
N1C(=O)N(C)C=2N=CN(C)C2C1=O,theobromine,-2.74,log(mol/L),-2.74,log(mol/L),-
CCCCCCCC(C)O,2-Nonanol,-2.74,log(mol/L),-2.74,log(mol/L),-
O=C(C1=NC(Cl)=C(Cl)C(N)=C1Cl)O,picloram,-2.75,log(mol/L),-2.75,log(mol/L),-
CCCCCCCCC(O)=O,pelargonic acid,-2.75,log(mol/L),-2.75,log(mol/L),112-05-0
CCCCCCCCN,n-octylamine,-2.75,log(mol/L),-2.75,log(mol/L),111-86-4
CCN1C=C(C(=O)C=2C=C(C(=CC12)N3CCNCC3)F)C(=O)O,Norfloxacin,1752.0,?M/L,-2.756,log(mol/L),-
C1(CN2C(CC1CC2)C(O)C3=CC=NC4=C3C=C(OC)C=C4)C=C,Quinine,-2.76,log(mol/L),-2.76,log(mol/L),130-95-0
C=C(F)C(F)(F)F,"2,3,3,3-Tetrafluoroprop- 1-ene",198.2,mg/L,-2.76,log(mol/L),-
CCCCN1CCCCC1C(=O)NC2=C(C)C=CC=C2C,bupivacaine,-2.76,log(mol/L),-2.76,log(mol/L),-
O=C1NC(=O)NC(=O)C1(C(C)C)C(C)C,"5,5-Diisopropylbarbital",-2.766,log(mol/L),-2.766,log(mol/L),-
CCC1=CC=CC=C1,ethylbenzene,-2.77,log(mol/L),-2.77,log(mol/L),100-41-4
O=C1NC(=O)NC(=O)C1(CC)C2=CC3CC(CC3)C2,reposal,-2.77,log(mol/L),-2.77,log(mol/L),-
CCC1=CC=CC=C1,ethylbenzene,-2.77,log(mol/L),-2.77,log(mol/L),-
CC1=CC=C(C=C1)C,p-xylene,-2.77,log(mol/L),-2.77,log(mol/L),-
S=C1C2=C(N=CN1)N=CC=N2,4-mercaptopteridine,-2.77,log(mol/L),-2.77,log(mol/L),65882-61-3
CC1=CC=C(C=C1)C,p-xylene,-2.77,log(mol/L),-2.77,log(mol/L),106-42-3
C1(CC)=CC=CC=C1,ethylbenzene,-2.77,log(mol/L),-2.77,log(mol/L),-
SC1=NC=2N=CC=NC2C=N1,4-mercaptopteridine,-2.77,log(mol/L),-2.77,log(mol/L),-
O(C1=CC(NC(CCCN)C)=C2N=CC=CC2=C1)C,Primaquine,-2.77,log(mol/L),-2.77,log(mol/L),-
ClC1=CC=CC(=C1)N(=O)=O,m-Chloronitrobenzene,-2.77,log(mol/L),-2.77,log(mol/L),-
IC1=CC=CC=C1,iodobenzene,-2.78,log(mol/L),-2.78,log(mol/L),591-50-4
C=12C=3C=CC=CC3N=CC1C=CC=C2,phenanthridine,-2.78,log(mol/L),-2.78,log(mol/L),229-87-8
COC1=CC=CC(Cl)=C1,3-Chloroanisole,-2.78,log(mol/L),-2.78,log(mol/L),-
O=C1C2=C(C=CC(O)=C2O)C(C3=CC=CC=C31)=O,alizarin,-2.78,log(mol/L),-2.78,log(mol/L),72-48-0
C1=CC=C2C(=C1)C=NC=3C=CC=CC23,phenanthridine,-2.78,log(mol/L),-2.78,log(mol/L),-
COC1=CC=C(C=C1)Cl,4-Chloroanisole,-2.78,log(mol/L),-2.78,log(mol/L),-
C1(CN2CCC1CC2C(O)C3=CC=NC4=C3C=C(OC)C=C4)C=C,Quinine,1635.1,?M/L,-2.786,log(mol/L),-
FC(F)=C(F)F,Tetrafluoroethylene,159.0,mg/L,-2.799,log(mol/L),116-14-3
ClC1=C(C)C=C(O)C=C1C,"4-chloro-3,5-dimethylphenol",-2.8,log(mol/L),-2.8,log(mol/L),88-04-0
OC(C1=CC=C(N(=O)=O)C=C1)=O,4-nitrobenzoic acid,-2.8,log(mol/L),-2.8,log(mol/L),62-23-7
CNC(=O)OC1=CC=CC=2CC(C)(C)OC12,Carbofuran,-2.8,log(mol/L),-2.8,log(mol/L),-
ClC1=C(C=C(C=C1C)O)C,"phenol,4-chloro-3,5-dimethyl-",-2.8,log(mol/L),-2.8,log(mol/L),-
CC1=C(C)C=CC=C1,o-Xylene,-2.8,log(mol/L),-2.8,log(mol/L),95-47-6
CC1=C(C=CC=C1)C,o-Xylene,-2.8,log(mol/L),-2.8,log(mol/L),-
CC1=CC=CC=C1C,o-Xylene,-2.8,log(mol/L),-2.8,log(mol/L),-
CN1CCC23C4OC5=C(OC(C)=O)C=CC(CC1C2C=CC4OC(C)=O)=C35,Heroin,-2.8,log(mol/L),-2.8,log(mol/L),-
FC(F)=C(F)F,-,2.2,log(mg/L),-2.8,log(mol/L),116-14-3
S(=O)(=O)(NC=1N=C(C=C(N1)C)C)C2=CC=C(N)C=C2,Sulfamethazine,-2.81,log(mol/L),-2.81,log(mol/L),-
O=C(NCC1=CC=CC=C1)CN2C(N(=O)=O)=NC=C2,benznidazole,-2.81,log(mol/L),-2.81,log(mol/L),22994-85-0
OC(C1N2CC(C(C1)CC2)C=C)C3=C4C(=NC=C3)C=CC(OC)=C4,quinidine,-2.81,log(mol/L),-2.81,log(mol/L),-
OC(C1N2CC(C(C1)CC2)C=C)C3=C4C(=NC=C3)C=CC(OC)=C4,Quinine,-2.81,log(mol/L),-2.81,log(mol/L),-
O=C(CN1C=CN=C1N(=O)=O)NCC2=CC=CC=C2,benznidazole,-2.81,log(mol/L),-2.81,log(mol/L),-
C1=CC=CC=C1CNC(=O)CN2C(N(=O)=O)=NC=C2,benznidazole,-2.81,log(mol/L),-2.81,log(mol/L),-
O(C1=CC=C2N=CC=C(C(O)C3N4CCC(C(C=C)C4)C3)C2=C1)C,Quinine,500.0,mg/L,-2.812,log(mol/L),130-95-0
CC1=CC(C)=CC=C1,m-xylene,-2.82,log(mol/L),-2.82,log(mol/L),108-38-3
OC1C23C(C4N5C(O)C(CC)C(C1C5C2)C4)N(C)C6=C3C=CC=C6,ajmaline,-2.82,log(mol/L),-2.82,log(mol/L),-
CN1C(ON(C1=O)C2=CC=C(C(Cl)=C2)Cl)=O,methazole,-2.82,log(mol/L),-2.82,log(mol/L),-
CC1=CC=C(C=C1N(=O)=O)N(=O)=O,"2,4-Dinitrotoluene",-2.82,log(mol/L),-2.82,log(mol/L),-
CC1=CC=CC(C)=C1,m-xylene,-2.82,log(mol/L),-2.82,log(mol/L),-
CN1C(ON(C1=O)C2=CC=C(C(Cl)=C2)Cl)=O,methazole,-2.82,log(mol/L),-2.82,log(mol/L),20354-26-1
CC1=CN=C(NS(=O)(C2=CC=C(C=C2)N)=O)N=C1,sulfaperine,-2.82,log(mol/L),-2.82,log(mol/L),599-88-2
CC1=CC(=CC=C1)C,m-xylene,-2.82,log(mol/L),-2.82,log(mol/L),-
O=S(=O)(C1=CC=C(N)C=C1)C2=CC=C(N)C=C2,dapsone,-2.82,log(mol/L),-2.82,log(mol/L),-
CC(C1=CC=C(O)C=C1)(C)C2=CC=C(O)C=C2,diphenylolpropane,-2.82,log(mol/L),-2.82,log(mol/L),80-05-7
C=CC1=CC=CC=C1,styrene,-2.82,log(mol/L),-2.82,log(mol/L),100-42-5
C1(=CC=CC=C1)C=C,styrene,-2.82,log(mol/L),-2.82,log(mol/L),-
O=S(C1=CC=C(N)C=C1)(C2=CC=C(N)C=C2)=O,dapsone,-2.82,log(mol/L),-2.82,log(mol/L),80-08-0
CC(C)NCC(O)COC1=CC=CC=C1CC=C,Alprenolol,-2.82,log(mol/L),-2.82,log(mol/L),-
C=CC1=CC=CC=C1,styrene,-2.82,log(mol/L),-2.82,log(mol/L),-
O=C1OC2=C(C=C(C=C2)Cl)N1,Chlorzoxazone,-2.83,log(mol/L),-2.83,log(mol/L),-
ClC1=CC=C2OC(=O)NC2=C1,Chlorzoxazone,-2.831,log(mol/L),-2.831,log(mol/L),-
O=C1C(C2CCCC3=CC=CC=C32)=C(O)C=4C=CC=CC4O1,Coumatetralyl,-2.84,log(mol/L),-2.84,log(mol/L),-
CC(NC1=CC=C(Cl)C=C1)=O,4-chloroacetanilide,-2.84,log(mol/L),-2.84,log(mol/L),539-03-7
CC(NC1=CC=C(Cl)C=C1)=O,p-Chloroacetanilide,-2.843,log(mol/L),-2.843,log(mol/L),-
OC(C1=CC=CC=C1)C(C2=CC=CC=C2)=O,benzoin,-2.85,log(mol/L),-2.85,log(mol/L),579-44-2
CCC1(C(=O)NC(=O)NC1=O)C2=CCCCCC2,heptabarbital,-2.85,log(mol/L),-2.85,log(mol/L),-
CC1=NC(NS(=O)(C2=CC=C(C=C2)N)=O)=NC=C1,sulfamerazine,-2.85,log(mol/L),-2.85,log(mol/L),127-79-7
OC(C(=O)C1=CC=CC=C1)C2=CC=CC=C2,benzoin,-2.85,log(mol/L),-2.85,log(mol/L),-
ClC1=CC(C)=C(C=C1)N=CN(C)C,chlordimenform,-2.86,log(mol/L),-2.86,log(mol/L),6164-98-3
NC1=NC=C(CC2=CC(OC)=C(OC)C(OC)=C2)C(N)=N1,Trimethoprim,-2.86,log(mol/L),-2.86,log(mol/L),738-70-5
O=C(O)C(N)CC1=CC(I)=C(O)C(I)=C1,"3,5-diiodotyrosine",-2.86,log(mol/L),-2.86,log(mol/L),66-02-4
COC1=CC(CC2=CN=C(N)N=C2N)=CC(OC)=C1OC,Trimethoprim,-2.86,log(mol/L),-2.86,log(mol/L),-
CCN1C2=NC=CC=C2N(CC)C(=O)C3=CC=CN=C13,-,-2.86,log(mol/L),-2.86,log(mol/L),-
CN(C)C=NC1=CC=C(Cl)C=C1C,chlordimeform,-2.86,log(mol/L),-2.86,log(mol/L),-
CCOC(=O)CSC1=NC(C(C)(C)C)=NN1C(=O)N(C)C,Triazamate,433.0,mg/L,-2.861,log(mol/L),112143-82-5
CCOC(=O)CSC1=NC(=NN1C(=O)N(C)C)C(C)(C)C,-,2.636488,log(mg/L),-2.861,log(mol/L),112143-82-5
CNC(=O)OC1=CC=CC=C1C(C)C,Isoprocarb,-2.863,log(mol/L),-2.863,log(mol/L),-
NC(=N)NC(=O)C1=NC(Cl)=C(N)N=C1N,Amiloride,-2.87,log(mol/L),-2.87,log(mol/L),-
OC1C2C(O)(C(=O)C=3C1C(C4=C(C3O)C(O)=CC=C4)C)C(O)=C(C(=O)C2N(C)C)C(=O)N,Doxycycline,-2.87,log(mol/L),-2.87,log(mol/L),564-25-0
O=C1C(Cl)=C(N)C=NN1C2=CC=CC=C2,pyrazon,-2.87,log(mol/L),-2.87,log(mol/L),1698-60-8
O=C(C=1C(=O)C2(C(=C3C(C4=C(C(C3C(C2C(C1O)N(C)C)O)C)C=CC=C4O)=O)O)O)N,Doxycycline,-2.87,log(mol/L),-2.87,log(mol/L),564-25-0
NC=1C=NN(C2=CC=CC=C2)C(=O)C1Cl,pyrazon,-2.878,log(mol/L),-2.878,log(mol/L),-
CNC1=CC=CC=C1C(O)=O,n-methylanthranilic acid,-2.88,log(mol/L),-2.88,log(mol/L),119-68-6
CCN1CCCC1CNC(=O)C2=CC(=CC=C2OC)S(N)(=O)=O,sulpiride,-2.88,log(mol/L),-2.88,log(mol/L),-
ClC1=C2C(O)(C3CC4C(O)(C(=O)C3=C(O)C2=C(O)C=C1)C(O)=C(C(=O)C4N(C)C)C(=O)N)C,chlortetracycline,-2.88,log(mol/L),-2.88,log(mol/L),-
ClC1=CC=C(C2=C1C(C3CC4C(C(=C3C2=O)O)(C(C(=C(C4N(C)C)O)C(=O)N)=O)O)(O)C)O,chlortetracycline,-2.88,log(mol/L),-2.88,log(mol/L),-
CN(C1C2CC3C(C(C4=C(C3(O)C)C(Cl)=CC=C4O)=O)=C(C2(C(C(C(N)=O)=C1O)=O)O)O)C,chlortetracycline,-2.88,log(mol/L),-2.88,log(mol/L),57-62-5
O=C(N(C)C)NC1=CC=C(Cl)C=C1,monuron,-2.89,log(mol/L),-2.89,log(mol/L),150-68-5
CN(C)C(=O)NC1=CC=C(Cl)C=C1,monuron,-2.89,log(mol/L),-2.89,log(mol/L),-
BrCCC(C)C,1-bromo-3-methylbutane,-2.89,log(mol/L),-2.89,log(mol/L),-
CC(C)CCBr,1-bromo-3-methylbutane,-2.89,log(mol/L),-2.89,log(mol/L),107-82-4
C1=CC=C2N(C)C3C4CC5C(CC)C(O)N4C6C5C(C3(C6)C2=C1)O,ajmaline,-2.89,log(mol/L),-2.89,log(mol/L),-
O=C(N1CC2N(CCC=3C2=CC=CC3)C(=O)C1)C4CCCCC4,Praziquantel,-2.89,log(mol/L),-2.89,log(mol/L),-
O=C(OCCCC)C1=CC=C(O)C=C1,Butylparaben,-2.89,log(mol/L),-2.89,log(mol/L),-
O=N(=O)C1=CC(=CC(=C1)N(=O)=O)N(=O)=O,"1,3,5-Trinitrobenzene",-2.89,log(mol/L),-2.89,log(mol/L),-
CON(C)C(=O)NC1=CC=C(Br)C=C1,Metobromuron,330.0,mg/L,-2.895,log(mol/L),3060-89-7
OC12C3N(CC=C)CCC14C5=C(C3)C=CC(O)=C5OC4C(CC2)=O,Naloxone,1265.36,?M/L,-2.898,log(mol/L),-
CN1CC2CC1CN2C3=C(C=C4C(N(C=C(C(=O)O)C4=O)C5CC5)=C3)F,danofloxacin,1260.0,?M/L,-2.9,log(mol/L),-
O=C1N2C3=C(C45C6N(CC4)CC=7C(C(C(OCC7)C1)C25)C6)C=C(OC)C(OC)=C3,brucine,-2.9,log(mol/L),-2.9,log(mol/L),-
OC1=CC=C(C=C1)C2(C3=CC=CC=C3C(O2)=O)C4=CC=C(O)C=C4,phenolphthalein,-2.9,log(mol/L),-2.9,log(mol/L),77-09-8
OC1=CC=C(C=C1)C2(OC(=O)C3=CC=CC=C23)C4=CC=C(O)C=C4,phenolphthalein,-2.9,log(mol/L),-2.9,log(mol/L),-
O=C(OC)CC1C(C(=O)CC1)CCCCC,"Cyclopentaneacetic acid, 3-oxo-2-pentyl-, methyl",280.0,mg/L,-2.908,log(mol/L),24851-98-7
O=S(NC=1ON=C(C)C1C)(C2=CC=C(N)C=C2)=O,sulfisoxazole,-2.91,log(mol/L),-2.91,log(mol/L),127-69-5
N(NC1=CC=CC=C1)C2=CC=CC=C2,hydrazobenzene,-2.92,log(mol/L),-2.92,log(mol/L),-
C=CCC1=CC=C(OC)C=C1,estragole,-2.92,log(mol/L),-2.92,log(mol/L),140-67-0
OC=1C=2C=CC=C(O)C2C=CC1,"naphthalene-1,5-diol",-2.92,log(mol/L),-2.92,log(mol/L),83-56-7
O=C1N(C2=C(C=CC=C2)C)C(=NC3=CC=CC=C13)C,Methaqualone,-2.92,log(mol/L),-2.92,log(mol/L),-
C1(NNC2=CC=CC=C2)=CC=CC=C1,hydrazobenzene,-2.92,log(mol/L),-2.92,log(mol/L),122-66-7
NC(C1=CC=CC=C1C(N)=O)=O,phthalamide,-2.92,log(mol/L),-2.92,log(mol/L),88-96-0
ClC1=CC=C(C=C1)N(=O)=O,p-Chloronitrobenzene,-2.92,log(mol/L),-2.92,log(mol/L),-
C1(OC)=CC=C(CC=C)C=C1,estragole,-2.92,log(mol/L),-2.92,log(mol/L),-
O=C(OCCCC)C1=CC=C(N)C=C1,Butamben,-2.92,log(mol/L),-2.92,log(mol/L),-
CC1=CC=CC=C1N2C(C)=NC=3C=CC=CC3C2=O,Methaqualone,-2.925,log(mol/L),-2.925,log(mol/L),-
OC1=C2C(C3=C(O)C4(C(C(C(N)=O)=C(O)C(N(C)C)C4CC3C(O)(C)C2=CC=C1)=O)O)=O,tetracycline,1185.68,?M/L,-2.926,log(mol/L),-
COCCCNC1=NC(NC(C)C)=NC(SC)=N1,Methoproptryne,-2.928,log(mol/L),-2.928,log(mol/L),-
O=C(N(C)C)NC1=CC(OC(NC(C)(C)C)=O)=CC=C1,karbutilate,-2.93,log(mol/L),-2.93,log(mol/L),4849-32-5
O=C1C2=C(O)C=C(OC)C=C2OC3=CC=C(C=C31)O,gentisin,-2.93,log(mol/L),-2.93,log(mol/L),437-50-3
CN(C)C(=O)NC1=CC=CC(OC(=O)NC(C)(C)C)=C1,karbutilate,-2.93,log(mol/L),-2.93,log(mol/L),-
CC1C(CC(C(O1)OC2C(C(C(C(C2O)O)O)O)O)N)N=C(C(=O)O)N,KASUGAMYCIN,-2.93,log(mol/L),-2.93,log(mol/L),-
OC1=CC=C2OC3=CC(OC)=CC(O)=C3C(=O)C2=C1,gentisin,-2.93,log(mol/L),-2.93,log(mol/L),437-50-3
C1=CC2C(=O)NC(=O)C2C=C1,phthalamide,-2.932,log(mol/L),-2.932,log(mol/L),-
C1(=C(COC(C)=O)CSC2C(NC(=O)CC3=CC=CS3)C(N12)=O)C(O)=O,Cephalothin,1153.54,?M/L,-2.938,log(mol/L),-
CCCCCCCCCC(C)O,2-Undecanol,-2.94,log(mol/L),-2.94,log(mol/L),-
C1=C(O)C2C(=O)C3C=C(O)C=CC3OC2C=C1OC,gentisin,-2.943,log(mol/L),-2.943,log(mol/L),-
CN(C)CCOC(C1=CC=CC=C1)C2=CC=CC=C2,diphenydramine,1133.31,?M/L,-2.946,log(mol/L),-
S1C(C(OC(=O)C)C(=O)N(CCN(C)C)C=2C1=CC=CC2)C3=CC=C(OC)C=C3,Diltiazem,-2.95,log(mol/L),-2.95,log(mol/L),-
S1(=O)(=O)N(CC(NCC)C2=C1SC(S(=O)(=O)N)=C2)CCCOC,Brinzolamide,-2.95,log(mol/L),-2.95,log(mol/L),-
C1(=NC(=C(C=N1)CC2=CC(=C(C(OC)=C2)OC)OC)N)N,Trimethoprim,1119.25,?M/L,-2.951,log(mol/L),-
CCCCI,1-iodobutane,-2.96,log(mol/L),-2.96,log(mol/L),542-69-8
COC1=CC(NS(=O)(C2=CC=C(C=C2)N)=O)=NC(OC)=N1,sulfadimethoxine,-2.96,log(mol/L),-2.96,log(mol/L),122-11-2
O=C(O)COC1=CC(Cl)=C(Cl)C=C1Cl,"2,4,5-t",-2.96,log(mol/L),-2.96,log(mol/L),93-76-5
ClC1=C(C=C(C(=C1)Cl)OCC(=O)O)Cl,"2,4,5-t",-2.96,log(mol/L),-2.96,log(mol/L),-
CCCCI,1-iodobutane,-2.96,log(mol/L),-2.96,log(mol/L),-
S1(=O)(=O)NCNC2=C1C=C(S(=O)(N)=O)C(=C2)C(F)(F)F,Hydroflumethiazide,1080.1,?M/L,-2.967,log(mol/L),-
N(=O)(=O)C1=C(C=CC(=C1)C(=O)O)Br,"Benzoic acid, 4-bromo-3-nitro-",265.0,mg/L,-2.968,log(mol/L),6319-40-0
O=S(=O)(NC1=NC=CC=C1)C2=CC=C(N)C=C2,sulfapyridine,-2.97,log(mol/L),-2.97,log(mol/L),-
O=C1CCC2(C)C(CCC3C2C(O)CC4(C)C3CCC4(O)C(CO)=O)=C1,Hydrocortisone,-2.97,log(mol/L),-2.97,log(mol/L),50-23-7
C1CC2=CC(CO)=C(N(=O)=O)C=C2NC1CNC(C)C,Oxamniquine,-2.97,log(mol/L),-2.97,log(mol/L),-
O=C(N(C)C)C(C1=CC=CC=C1)C2=CC=CC=C2,diphenamid,-2.98,log(mol/L),-2.98,log(mol/L),957-51-7
O=C1N(C(=O)NN1C2=CC=CC=C2)C,"1,2,4-Triazolidine-3,5-dione, 4-methyl-1-phenyl-",200.0,mg/L,-2.98,log(mol/L),14500-23-3
CCN1C=C(C(C2=C1N=C(N3CCNCC3)N=C2)=O)C(O)=O,pipedemic acid,-2.98,log(mol/L),-2.98,log(mol/L),51940-44-4
CN(C)C(=O)C(C1=CC=CC=C1)C2=CC=CC=C2,diphenamid,-2.98,log(mol/L),-2.98,log(mol/L),-
CN1C(=O)NN(C1=O)C2=CC=CC=C2,-,2.30103,log(mg/L),-2.98,log(mol/L),14500-23-3
O=C1NC(=O)C2(CCCCCCC2)C(=O)N1,Cyclooctyl-5-spirobarbituric acid,-2.982,log(mol/L),-2.982,log(mol/L),-
O=C1C=CC2(C)C(C(C)CC3C2C(O)CC4(C)C3CCC4(O)C(CO)=O)=C1,6-methylprednisolone,-2.99,log(mol/L),-2.99,log(mol/L),83-43-2
O=C(OCC)C=CC1=CC=CC=C1,"Cinnamic acid, ethyl ester",178.0,mg/L,-2.996,log(mol/L),103-36-6
CCOC(=O)C=CC1=CC=CC=C1,ethyl cinnamate,-3.0,log(mol/L),-3.0,log(mol/L),-
OC12C(CC3C(O)(C4=C(C(=O)C3=C1O)C(O)=CC=C4)C)C(N(C)C)C(O)=C(C2=O)C(=O)N,tetracycline,-3.0,log(mol/L),-3.0,log(mol/L),-
CC1=C(C=CC=C1N(=O)=O)N(=O)=O,"2,6-Dinitrotoluene",-3.0,log(mol/L),-3.0,log(mol/L),-
O=C(OCC)C=CC1=CC=CC=C1,ethyl cinnamate,-3.0,log(mol/L),-3.0,log(mol/L),103-36-6
O=C1NC(C(C(N1)=O)(C2=CCCCCC2)CC)=O,heptabarbital,-3.0,log(mol/L),-3.0,log(mol/L),509-86-4
ClC1=CC(Cl)=C(C=C1)C2(CN3C=NC=N3)OCCO2,-,2.477121,log(mg/L),-3.0,log(mol/L),60207-31-0
O=C(CC)NC1=CC(Cl)=C(Cl)C=C1,propanil,-3.0,log(mol/L),-3.0,log(mol/L),709-98-8
CCC(=O)NC1=CC=C(Cl)C(Cl)=C1,propanil,-3.0,log(mol/L),-3.0,log(mol/L),-
O=C(C1=CC=CC=C1C(=O)O)C2=CC=C(C=C2)Br,"Benzoic acid, 2-(4-bromobenzoyl)-",300.0,mg/L,-3.007,log(mol/L),2159-40-2
O=C(C1=CC(=CC=C1O)N2N=C3C=CC=CC3=N2)O,"Salicylic acid, 5-(2H-benzotriazol-2-yl)-",250.0,mg/L,-3.009,log(mol/L),6245-33-6
O=C(NC1C2C3CCCC3C(C1)C2)N(C)C,isonoruron,-3.01,log(mol/L),-3.01,log(mol/L),28805-78-9
CCCCCCCCCO,1-nonanol,-3.01,log(mol/L),-3.01,log(mol/L),143-08-8
CCCCCC#C,1-heptyne,-3.01,log(mol/L),-3.01,log(mol/L),-
IC1=CC=CC=C1,iodobenzene,-3.01,log(mol/L),-3.01,log(mol/L),-
CCCCCCCCCO,1-nonanol,-3.01,log(mol/L),-3.01,log(mol/L),-
C(CCC#C)CC,1-heptyne,-3.01,log(mol/L),-3.01,log(mol/L),-
C#CCCCCC,1-heptyne,-3.01,log(mol/L),-3.01,log(mol/L),628-71-7
C(C1=CC=C(C=C1)NCCCC)(=O)OCCN(C)C,Tetracaine,975.128,?M/L,-3.011,log(mol/L),-
FC(F)(F)C1=CC=CC=C1,-,2.15,log(mg/L),-3.015,log(mol/L),98-08-8
FC(F)(F)C1=CC=CC=C1,benzotrifluoride,140.0,mg/L,-3.019,log(mol/L),98-08-8
CCCCC1=C(O)N=C(NCC)N=C1C,Ethirimol,-3.02,log(mol/L),-3.02,log(mol/L),23947-60-6
NS(=O)(=O)C1=C(Cl)C=C2N=CNS(=O)(=O)C2=C1,Chlorothiazide,-3.02,log(mol/L),-3.02,log(mol/L),-
COC=1C=2OC=CC2C(OC)=C3C(=O)C=C(C)OC13,khellin,-3.021,log(mol/L),-3.021,log(mol/L),-
CCCCC1=C(C)N=C(NCC)NC1=O,Ethirimol,-3.028,log(mol/L),-3.028,log(mol/L),-
CCN(C1=CC=CC=C1)CC,"n,n-diethylaniline",-3.03,log(mol/L),-3.03,log(mol/L),91-66-7
CCN(CC)C1=CC=CC=C1,"n,n-diethylaniline",-3.03,log(mol/L),-3.03,log(mol/L),-
CCCC(=C)C,2-Methyl-1-Pentene,-3.03,log(mol/L),-3.03,log(mol/L),-
O=S(NC(NCCC)=O)(C1=CC=C(Cl)C=C1)=O,chlorpropamide,-3.03,log(mol/L),-3.03,log(mol/L),94-20-2
C1=CC(Cl)=CC=C1S(=O)(=O)NC(=O)NCCC,chlorpropamide,-3.03,log(mol/L),-3.03,log(mol/L),-
C1=CC=2C(=O)C=C(C)C(=O)C2C=C1,menadione,-3.03,log(mol/L),-3.03,log(mol/L),-
C(=C)(CCC)C,2-Methyl-1-Pentene,-3.03,log(mol/L),-3.03,log(mol/L),-
O=C1C(C)=CC(C=2C1=CC=CC2)=O,menadione,-3.03,log(mol/L),-3.03,log(mol/L),58-27-5
CC1=CC(=O)C2=CC=CC=C2C1=O,menadione,-3.03,log(mol/L),-3.03,log(mol/L),-
ClC1=CC=CC(Cl)=C1,"1,3-Dichlorobenzene",-3.04,log(mol/L),-3.04,log(mol/L),-