SMILES,NAME,Water solubility,UNIT {Water solubility},Solubility_log(mol/L),UNIT {Water solubility}.1,CASRN,MolW(Da),NumHAcceptors,NumHDonors,LogP,Lipinski_rule,Solubility(mol/L)
Clc1c(Cl)c(Cl)c(-c2c(Cl)c(Cl)c(Cl)c(Cl)c2Cl)c(Cl)c1Cl,"2,2?,3,3?,4,4?,5,5?,6,6?-pcb",-11.62,log(mol/L),-11.62,log(mol/L),2051-24-3,498.66200000000026,0,0,9.887599999999999,0,2.398832919019495e-12
Clc1c(Cl)c(Cl)c(-c2c(Cl)c(Cl)c(Cl)c(Cl)c2Cl)c(Cl)c1Cl,"2,2',3,3',4,4',5,5',6,6'-PCB",-11.62,log(mol/L),-11.62,log(mol/L),2051-24-3,498.66200000000026,0,0,9.887599999999999,0,2.398832919019495e-12
Clc1c(Cl)c(Cl)c(-c2c(Cl)c(Cl)c(Cl)c(Cl)c2Cl)c(Cl)c1Cl,"2,2?,3,3?,4,4?,5,5?,6,6?-PCB",-11.62,log(mol/L),-11.62,log(mol/L),-,498.66200000000026,0,0,9.887599999999999,0,2.398832919019495e-12
Brc1ccc(Oc2cc(Br)c(Br)cc2Br)c(Br)c1,DE 71,9.0E-7,mg/L,-11.8,log(mol/L),32534-81-9,564.691,1,0,7.291400000000002,0,1.584893192461111e-12
Brc1ccc(Oc2ccc(Br)c(Br)c2Br)c(Br)c1,"2,2',3,4,4'-Pentabromodiphenyl ether; BDE-085",9.0E-7,mg/L,-11.8,log(mol/L),182346-21-0,564.691,1,0,7.291400000000002,0,1.584893192461111e-12
Brc1ccc(Oc2cc(Br)c(Br)cc2Br)c(Br)c1,"2,2',4,4',5-Pentabromodiphenyl ether; BDE-099",9.0E-7,mg/L,-11.8,log(mol/L),60348-60-9,564.691,1,0,7.291400000000002,0,1.584893192461111e-12
Brc1c(Br)c(Br)c(Oc2ccccc2)c(Br)c1Br,"BDE-116; 2,3,4,5,6-pentabromodiphenyl ether",9.0E-7,mg/L,-11.8,log(mol/L),-,564.6910000000001,1,0,7.291400000000002,0,1.584893192461111e-12
Brc1cc(Br)c(Oc2ccc(Br)c(Br)c2)c(Br)c1,"BDE-119; 2,3',4,4',6-pentabromodiphenyl ether",9.0E-7,mg/L,-11.8,log(mol/L),189084-66-0,564.691,1,0,7.291400000000002,0,1.584893192461111e-12