SMILES,NAME,Water solubility,UNIT {Water solubility},Solubility_log(mol/L),UNIT {Water solubility}.1,CASRN,MolW(Da),NumHAcceptors,NumHDonors,LogP,Lipinski_rule,Solubility(mol/L)
O=C(CCCN1CCC(n2c(=O)[nH]c3ccccc32)CC1)c1ccc(F)cc1,Benperidol,-4.28,log(mol/L),-4.28,log(mol/L),-,381.4510000000002,4,1,3.7687000000000026,1,5.248074602497723e-05
CC(=O)SC1CC2=CC(=O)CCC2(C)C2CCC3(C)C(CCC34CCC(=O)O4)C12,spironolactone,-4.28,log(mol/L),-4.28,log(mol/L),-,416.58300000000025,5,0,4.852300000000005,1,5.248074602497723e-05
CC(C)N(C(=O)SCC(Cl)=CCl)C(C)C,diallate,-4.286,log(mol/L),-4.286,log(mol/L),-,270.225,2,0,4.277400000000004,1,5.1760683195056815e-05
Cc1cc(C)c2ccccc2c1,"1,3-dimethylnaphthalene",-4.29,log(mol/L),-4.29,log(mol/L),575-41-7,156.22799999999998,0,0,3.456640000000002,1,5.128613839913648e-05
CCc1ccc2ccccc2c1,2-ethylnaphthalene,-4.29,log(mol/L),-4.29,log(mol/L),-,156.22799999999998,0,0,3.4022000000000014,1,5.128613839913648e-05
CC(CCC(=O)O)C1CCC2C3C(O)CC4CC(O)CCC4(C)C3CCC12C,ursodeoxycholic acid,-4.29,log(mol/L),-4.29,log(mol/L),128-13-2,392.5800000000002,3,3,4.477900000000004,1,5.128613839913648e-05
CCc1ccc2ccccc2c1,2-ethylnaphthalene,-4.29,log(mol/L),-4.29,log(mol/L),939-27-5,156.22799999999998,0,0,3.4022000000000014,1,5.128613839913648e-05
CCOP(=S)(OCC)Oc1ccc([N+](=O)[O-])cc1,parathion,-4.29,log(mol/L),-4.29,log(mol/L),56-38-2,291.265,6,0,3.2711000000000023,1,5.128613839913648e-05
Cc1cc(C)c2ccccc2c1,"1,3-dimethylnaphthalene",-4.29,log(mol/L),-4.29,log(mol/L),-,156.22799999999998,0,0,3.456640000000002,1,5.128613839913648e-05
OCCC(F)(F)C(F)(F)C(F)(F)C(F)(F)C(F)(F)C(F)(F)F,-,1.27,log(mg/L),-4.291,log(mol/L),647-42-7,364.10099999999994,1,1,4.107600000000001,1,5.116818355403073e-05
CC1CCCCC1C,"cis-1,2-dimethylcyclohexane",-4.3,log(mol/L),-4.3,log(mol/L),-,112.216,0,0,2.832600000000001,1,5.011872336272725e-05
CN(C)CCCN1c2ccccc2Sc2ccccc21,Promazine,-4.3,log(mol/L),-4.3,log(mol/L),-,284.42800000000005,3,0,4.241000000000003,1,5.011872336272725e-05
CC(=O)OCC(=O)C1(O)CCC2C3CCC4=CC(=O)CCC4(C)C3C(O)CC21C,hydrocortisone acetate,-4.3,log(mol/L),-4.3,log(mol/L),50-03-3,404.5030000000002,6,2,2.3524000000000003,1,5.011872336272725e-05
CN(C)CCCN1c2ccccc2Sc2ccccc21,Promazine,-4.3,log(mol/L),-4.3,log(mol/L),58-40-2,284.42800000000005,3,0,4.241000000000003,1,5.011872336272725e-05
C#CC1(O)CCC2C3CCc4cc(O)ccc4C3CCC21C,ethinyl estradiol,-4.3,log(mol/L),-4.3,log(mol/L),57-63-6,296.4100000000001,2,2,3.6126000000000023,1,5.011872336272725e-05
C#CC1(O)CCC2C3CCc4cc(O)ccc4C3CCC21C,ethinyl estradiol,-4.3,log(mol/L),-4.3,log(mol/L),-,296.4100000000001,2,2,3.6126000000000023,1,5.011872336272725e-05
COP(=S)(OC)Oc1ccc([N+](=O)[O-])cc1Cl,dicaphton,-4.31,log(mol/L),-4.31,log(mol/L),2463-84-5,297.65599999999995,6,0,3.144300000000002,1,4.897788193684466e-05
c1ccc(-c2ccccc2)cc1,biphenyl,-4.31,log(mol/L),-4.31,log(mol/L),92-52-4,154.21199999999996,0,0,3.353600000000001,1,4.897788193684466e-05
c1ccc(-c2ccccc2)cc1,biphenyl,-4.31,log(mol/L),-4.31,log(mol/L),-,154.21199999999996,0,0,3.353600000000001,1,4.897788193684466e-05
COc1ccc2ccc(=O)oc2c1CC=C(C)C,osthole,-4.31,log(mol/L),-4.31,log(mol/L),484-12-8,244.28999999999994,3,0,3.3103000000000016,1,4.897788193684466e-05
COP(=S)(OC)Oc1ccc([N+](=O)[O-])cc1Cl,Dicapthon,-4.31,log(mol/L),-4.31,log(mol/L),-,297.65599999999995,6,0,3.144300000000002,1,4.897788193684466e-05
CCCCCCCCCCCCCCC(=O)O,pentadecanoic acid,-4.31,log(mol/L),-4.31,log(mol/L),1002-84-2,242.40299999999993,1,1,5.162200000000004,0,4.897788193684466e-05
CC1(C)OC2CC3C4CCC5=CC(=O)C=CC5(C)C4(F)C(O)CC3(C)C2(C(=O)CO)O1,triamcinolone acetonide,-4.31,log(mol/L),-4.31,log(mol/L),-,434.50400000000025,6,2,2.4188000000000005,1,4.897788193684466e-05
COc1ccc2ccc(=O)oc2c1CC=C(C)C,osthole,-4.314,log(mol/L),-4.314,log(mol/L),-,244.28999999999994,3,0,3.3103000000000016,1,4.85288500162121e-05
CC1(C)OC2CC3C4CCC5=CC(=O)C=CC5(C)C4(F)C(O)CC3(C)C2(C(=O)CO)O1,triamcinolone acetonide,-4.32,log(mol/L),-4.32,log(mol/L),76-25-5,434.50400000000025,6,2,2.4188000000000005,1,4.7863009232263804e-05
CC1(C)OC2CC3C4CCC5=CC(=O)C=CC5(C)C4(F)C(O)CC3(C)C2(C(=O)CO)O1,triamcinolone acetonide,-4.32,log(mol/L),-4.32,log(mol/L),-,434.50400000000025,6,2,2.4188000000000005,1,4.7863009232263804e-05
C#CCOc1cc(-n2nc3n(c2=O)CCCC3)c(Cl)cc1Cl,-,1.20412,log(mg/L),-4.325,log(mol/L),68049-83-2,338.19399999999996,5,0,2.6891000000000007,1,4.731512589614803e-05
C#CCOc1cc(-n2nc3n(c2=O)CCCC3)c(Cl)cc1Cl,Azafenidin,16.0,mg/L,-4.325,log(mol/L),68049-83-2,338.19399999999996,5,0,2.6891000000000007,1,4.731512589614803e-05
CN(C)C(=O)Nc1ccc(-n2nc(C(C)(C)C)oc2=O)c(Cl)c1,Dimefuron,-4.328,log(mol/L),-4.328,log(mol/L),-,338.7950000000001,5,1,2.8699000000000012,1,4.698941086052151e-05
CC1(C)CCC(Cc2ccc(Cl)cc2)C1(O)Cn1cncn1,Metconazole,15.0,mg/L,-4.329,log(mol/L),125116-23-6,319.836,4,1,3.3415000000000017,1,4.688133821452655e-05
CC1(C)CCC(Cc2ccc(Cl)cc2)C1(O)Cn1cncn1,-,1.176091,log(mg/L),-4.329,log(mol/L),125116-23-6,319.836,4,1,3.3415000000000017,1,4.688133821452655e-05
CC(C)(C)NC(=O)C1CC2CCCCC2CN1CC(O)C(Cc1ccccc1)NC(=O)C(CC(N)=O)NC(=O)c1ccc2ccccc2n1,saquinavir,-4.33,log(mol/L),-4.33,log(mol/L),-,670.855,7,5,3.092400000000003,0,4.677351412871981e-05
Cc1ccccc1N1C(=O)c2cc(S(N)(=O)=O)c(Cl)cc2NC1C,Metolazone,-4.33,log(mol/L),-4.33,log(mol/L),-,365.8420000000001,4,2,2.714120000000001,1,4.677351412871981e-05
CC1CCCCC1C,"trans-1,2-dimethylcyclohexane",-4.33,log(mol/L),-4.33,log(mol/L),6876-23-9,112.216,0,0,2.832600000000001,1,4.677351412871981e-05
c1ccc(-c2ccccc2)cc1,biphenyl,-4.345,log(mol/L),-4.345,log(mol/L),-,154.21199999999996,0,0,3.353600000000001,1,4.518559443749226e-05
CCC(c1ccc(O)cc1)C(CC)c1ccc(O)cc1,hexestrol,-4.35,log(mol/L),-4.35,log(mol/L),-,270.37199999999996,2,2,4.785200000000004,1,4.466835921509635e-05
CC(CCC(=O)O)C1CCC2C3CC(O)C4CC(O)CCC4(C)C3CC(O)C12C,hyocholic acid,-4.35,log(mol/L),-4.35,log(mol/L),547-75-1,408.5790000000002,4,4,3.4487000000000023,1,4.466835921509635e-05
Brc1cccc2ccccc12,1-bromonapthtalene,-4.35,log(mol/L),-4.35,log(mol/L),90-11-9,207.07,0,0,3.6023000000000014,1,4.466835921509635e-05
CCC(=C(CC)c1ccc(O)cc1)c1ccc(O)cc1,des,-4.35,log(mol/L),-4.35,log(mol/L),56-53-1,268.356,2,2,4.828600000000005,1,4.466835921509635e-05
Brc1cccc2ccccc12,1-Bromonapthalene,-4.35,log(mol/L),-4.35,log(mol/L),-,207.07,0,0,3.6023000000000014,1,4.466835921509635e-05
CCC(=C(CC)c1ccc(O)cc1)c1ccc(O)cc1,Diethylstilbestrol,-4.35,log(mol/L),-4.35,log(mol/L),-,268.356,2,2,4.828600000000005,1,4.466835921509635e-05
Brc1cccc2ccccc12,1-bromonapthtalene,-4.35,log(mol/L),-4.35,log(mol/L),-,207.07,0,0,3.6023000000000014,1,4.466835921509635e-05
CCCC(C)(C)C,"2,2-Dimethylpentane",-4.36,log(mol/L),-4.36,log(mol/L),-,100.20499999999998,0,0,2.832600000000001,1,4.3651583224016566e-05
O=C(O)c1ccccc1Nc1cccc(C(F)(F)F)c1,flufenamic acid,-4.36,log(mol/L),-4.36,log(mol/L),530-78-9,281.23299999999995,2,2,4.1472000000000016,1,4.3651583224016566e-05
CC(=O)C(C)=CC1C(C)=CCCC1(C)C,FRA-021; g-methyl ionone,9.0,mg/L,-4.36,log(mol/L),127-51-5,206.32899999999995,1,0,3.904200000000003,1,4.3651583224016566e-05
CC(C)C(C)(C)C,"2,2,3-Trimethylbutane",-4.36,log(mol/L),-4.36,log(mol/L),-,100.20499999999998,0,0,2.6885000000000012,1,4.3651583224016566e-05
c1ccc2c(c1)CCCC2,"1,2,3,4-Tetrahydronapthalene",-4.37,log(mol/L),-4.37,log(mol/L),-,132.206,0,0,2.5654000000000003,1,4.265795188015926e-05
CC(=O)OCC(=O)C1(O)CCC2C3CCC4=CC(=O)C=CC4(C)C3C(O)CC21C,prednisolone acetate,-4.37,log(mol/L),-4.37,log(mol/L),52-21-1,402.48700000000014,6,2,2.1284,1,4.265795188015926e-05
O=C(Nc1cccc(Cl)c1)OCC#CCCl,barbane,-4.37,log(mol/L),-4.37,log(mol/L),101-27-9,258.1039999999999,2,1,3.130700000000002,1,4.265795188015926e-05
CC(=O)OCC(=O)C1(O)CCC2C3CCC4=CC(=O)C=CC4(C)C3C(O)CC21C,prednisolone acetate,-4.37,log(mol/L),-4.37,log(mol/L),-,402.48700000000014,6,2,2.1284,1,4.265795188015926e-05
O=C(Nc1cccc(Cl)c1)OCC#CCCl,Barban,-4.37,log(mol/L),-4.37,log(mol/L),-,258.1039999999999,2,1,3.130700000000002,1,4.265795188015926e-05
COC12CCC3(CC1C(C)(O)C(C)(C)C)C1Cc4ccc(O)c5c4C3(CCN1CC1CC1)C2O5,Buprenorphine,-4.37,log(mol/L),-4.37,log(mol/L),-,467.6500000000003,5,2,4.413800000000004,1,4.265795188015926e-05
CC(C)NC(=O)N1CC(=O)N(c2cc(Cl)cc(Cl)c2)C1=O,Rovral,-4.376,log(mol/L),-4.376,log(mol/L),-,330.17100000000005,3,1,2.880000000000001,1,4.2072662838444376e-05
c1ccc2c(c1)sc1ccccc12,dibenzothiophene,-4.38,log(mol/L),-4.38,log(mol/L),132-65-0,184.263,1,0,4.054500000000002,1,4.168693834703355e-05
c1ccc2c(c1)sc1ccccc12,dibenzothiophene,-4.38,log(mol/L),-4.38,log(mol/L),-,184.263,1,0,4.054500000000002,1,4.168693834703355e-05
OC(c1ccc(Cl)cc1)(c1cncnc1)c1ccccc1Cl,fenarimol,-4.38,log(mol/L),-4.38,log(mol/L),-,331.202,3,1,4.0676000000000005,1,4.168693834703355e-05
OC(c1ccc(Cl)cc1)(c1cncnc1)c1ccccc1Cl,fenarimol,-4.38,log(mol/L),-4.38,log(mol/L),60168-88-9,331.202,3,1,4.0676000000000005,1,4.168693834703355e-05
CCCCC1C(=O)N(c2ccccc2)N(c2ccccc2)C1=O,Phenylbutazone,40.6647,?M/L,-4.391,log(mol/L),-,308.3810000000001,2,0,3.7878000000000025,1,4.0644332916521274e-05
CC12CCC3C(CCC4CC(O)CCC43C)C1CCC2=O,androsterone,-4.4,log(mol/L),-4.4,log(mol/L),53-41-8,290.447,2,1,3.959100000000003,1,3.9810717055349695e-05
Brc1ccc2ccccc2c1,2-bromonaphthalene,-4.4,log(mol/L),-4.4,log(mol/L),580-13-2,207.07,0,0,3.6023000000000014,1,3.9810717055349695e-05
CCCCOC(=O)c1ccccc1C(=O)OCCCC,dibutyl phthalate,-4.4,log(mol/L),-4.4,log(mol/L),84-74-2,278.348,4,0,3.600400000000003,1,3.9810717055349695e-05
Brc1ccc2ccccc2c1,2-bromonaphthalene,-4.4,log(mol/L),-4.4,log(mol/L),-,207.07,0,0,3.6023000000000014,1,3.9810717055349695e-05
CN1CCN(CCCN2c3ccccc3Sc3ccc(Cl)cc32)CC1,prochlorperazine,-4.4,log(mol/L),-4.4,log(mol/L),58-38-8,373.95300000000015,4,0,4.580200000000004,1,3.9810717055349695e-05
CCCCOC(=O)c1ccccc1C(=O)OCCCC,dibutylphthalate,-4.4,log(mol/L),-4.4,log(mol/L),-,278.348,4,0,3.600400000000003,1,3.9810717055349695e-05
O=C(O)c1ccccc1Nc1cccc(C(F)(F)F)c1,flufenamic acid,-4.4,log(mol/L),-4.4,log(mol/L),-,281.23299999999995,2,2,4.1472000000000016,1,3.9810717055349695e-05
CC12CCC3C(CCC4CC(O)CCC43C)C1CCC2=O,androsterone,-4.4,log(mol/L),-4.4,log(mol/L),-,290.447,2,1,3.959100000000003,1,3.9810717055349695e-05
CN1CCN(CCCN2c3ccccc3Sc3ccc(Cl)cc32)CC1,prochlorperazine,-4.4,log(mol/L),-4.4,log(mol/L),-,373.95300000000015,4,0,4.580200000000004,1,3.9810717055349695e-05
CC12CCC3C(CCC4CC(O)CCC43C)C1CCC2=O,androsterone,-4.402,log(mol/L),-4.402,log(mol/L),-,290.447,2,1,3.959100000000003,1,3.9627803425543934e-05
Brc1ccc2ccccc2c1,2-Bromonapthalene,-4.41,log(mol/L),-4.41,log(mol/L),-,207.07,0,0,3.6023000000000014,1,3.8904514499428046e-05
CCN(CC)c1nc(Cl)nc(N(CC)CC)n1,Chlorazine,-4.411,log(mol/L),-4.411,log(mol/L),-,257.76899999999995,5,0,2.2173999999999996,1,3.8815036599064864e-05
C=C(C)C1Cc2c(ccc3c2OC2COc4cc(OC)c(OC)cc4C2C3=O)O1,rotenone,-4.42,log(mol/L),-4.42,log(mol/L),83-79-4,394.4230000000001,6,0,3.7033000000000023,1,3.8018939632056124e-05
CC(=O)C1CCC2C3CCC4=CC(=O)CCC4(C)C3CCC12C,progesterone,-4.42,log(mol/L),-4.42,log(mol/L),-,314.46900000000005,2,0,4.723500000000005,1,3.8018939632056124e-05
C=C(C)C1Cc2c(ccc3c2OC2COc4cc(OC)c(OC)cc4C2C3=O)O1,rotenone,-4.42,log(mol/L),-4.42,log(mol/L),-,394.4230000000001,6,0,3.7033000000000023,1,3.8018939632056124e-05
C#CC1(O)CCC2C3CCc4cc(O)ccc4C3CCC21C,ethinyl estradiol,-4.42,log(mol/L),-4.42,log(mol/L),-,296.4100000000001,2,2,3.6126000000000023,1,3.8018939632056124e-05
Nc1nc2nc[nH]c2c(=O)[nH]1,Guanine,37.382,?M/L,-4.427,log(mol/L),-,151.129,4,3,-0.7716000000000003,1,3.7411058827205366e-05
CCOc1nc(F)cc2nc(S(=O)(=O)Nc3c(Cl)cccc3C(=O)OC)nn12,-,1.20412,log(mg/L),-4.429,log(mol/L),147150-35-4,429.8170000000002,9,1,1.9028999999999994,1,3.723917062545683e-05
CCOc1nc(F)cc2nc(S(=O)(=O)Nc3c(Cl)cccc3C(=O)OC)nn12,CLORANSULAM,16.0,mg/L,-4.429,log(mol/L),147150-35-4,429.8170000000002,9,1,1.9028999999999994,1,3.723917062545683e-05
O=C(CCCN1CCC(O)(c2ccc(Cl)cc2)CC1)c1ccc(F)cc1,Haloperidol,-4.43,log(mol/L),-4.43,log(mol/L),-,375.87100000000015,3,1,4.425600000000004,1,3.715352290971728e-05
O=C(CCCN1CCC(O)(c2ccc(Cl)cc2)CC1)c1ccc(F)cc1,Haloperidol,-4.43,log(mol/L),-4.43,log(mol/L),52-86-8,375.87100000000015,3,1,4.425600000000004,1,3.715352290971728e-05
CCC(c1ccc(O)cc1)C(CC)c1ccc(O)cc1,hexestrol,-4.43,log(mol/L),-4.43,log(mol/L),5635-50-7,270.37199999999996,2,2,4.785200000000004,1,3.715352290971728e-05
CC(=O)C1CCC2C3CCC4=CC(=O)CCC4(C)C3CCC12C,progesterone,-4.43,log(mol/L),-4.43,log(mol/L),57-83-0,314.46900000000005,2,0,4.723500000000005,1,3.715352290971728e-05
CCCCCCCBr,1-bromoheptane,-4.43,log(mol/L),-4.43,log(mol/L),-,179.101,0,0,3.351700000000002,1,3.715352290971728e-05
CCCCCCCBr,1-bromoheptane,-4.43,log(mol/L),-4.43,log(mol/L),629-04-9,179.101,0,0,3.351700000000002,1,3.715352290971728e-05
CC(C)Nc1nc(Cl)nc(NC(C)C)n1,propazine,-4.43,log(mol/L),-4.43,log(mol/L),139-40-2,229.71500000000003,5,2,2.1655999999999995,1,3.715352290971728e-05
CCC(c1ccc(O)cc1)C(CC)c1ccc(O)cc1,hexestrol,-4.43,log(mol/L),-4.43,log(mol/L),-,270.37199999999996,2,2,4.785200000000004,1,3.715352290971728e-05
CC(C)Nc1nc(Cl)nc(NC(C)C)n1,propazine,-4.43,log(mol/L),-4.43,log(mol/L),-,229.71500000000003,5,2,2.1655999999999995,1,3.715352290971728e-05
COP(=S)(OC)SCC(=O)N(c1ccc(Cl)cc1)C(C)C,Anilofos,-4.432,log(mol/L),-4.432,log(mol/L),-,367.86,5,0,4.331900000000004,1,3.698281797802659e-05
CC1COC(Cn2cncn2)(c2ccc(Oc3ccc(Cl)cc3)cc2Cl)O1,-,1.176091,log(mg/L),-4.433,log(mol/L),119446-68-3,406.2690000000001,6,0,4.665500000000003,1,3.6897759857015046e-05
CC1COC(Cn2cncn2)(c2ccc(Oc3ccc(Cl)cc3)cc2Cl)O1,Difenoconazole,15.0,mg/L,-4.433,log(mol/L),119446-68-3,406.2690000000001,6,0,4.665500000000003,1,3.6897759857015046e-05
C=CCCCCCC,1-Octene,-4.44,log(mol/L),-4.44,log(mol/L),-,112.216,0,0,3.142800000000002,1,3.63078054770101e-05
Cn1cc(-c2ccccc2)c(=O)c(-c2cccc(C(F)(F)F)c2)c1,fluridone,-4.44,log(mol/L),-4.44,log(mol/L),59756-60-4,329.32099999999997,2,0,4.738100000000003,1,3.63078054770101e-05
C=CCCCCCC,1-Octene,-4.44,log(mol/L),-4.44,log(mol/L),111-66-0,112.216,0,0,3.142800000000002,1,3.63078054770101e-05
O=c1oc2ccccc2c(O)c1C(CC(O)c1ccc(-c2ccc(Br)cc2)cc1)c1ccccc1,bromadiolone,-4.445,log(mol/L),-4.445,log(mol/L),-,527.4140000000001,4,2,7.183700000000007,0,3.58921934645005e-05
Cn1cc(-c2ccccc2)c(=O)c(-c2cccc(C(F)(F)F)c2)c1,fluridone,-4.445,log(mol/L),-4.445,log(mol/L),-,329.32099999999997,2,0,4.738100000000003,1,3.58921934645005e-05
c1ccc(N=Nc2ccccc2)cc1,azobenzene,-4.45,log(mol/L),-4.45,log(mol/L),103-33-3,182.22600000000003,2,0,4.102000000000002,1,3.5481338923357534e-05
O=c1oc2ccccc2c(O)c1C(CC(O)c1ccc(-c2ccc(Br)cc2)cc1)c1ccccc1,bromadiolone,-4.45,log(mol/L),-4.45,log(mol/L),-,527.4140000000001,4,2,7.183700000000007,0,3.5481338923357534e-05
c1ccc(N=Nc2ccccc2)cc1,azobenzene,-4.45,log(mol/L),-4.45,log(mol/L),-,182.22600000000003,2,0,4.102000000000002,1,3.5481338923357534e-05
Oc1cc(Cl)ccc1Oc1ccc(Cl)cc1Cl,triclosan,-4.46,log(mol/L),-4.46,log(mol/L),3380-34-5,289.54499999999996,2,1,5.144700000000002,0,3.467368504525317e-05
CC(=O)OC1CCC2(C)C(=CCC3C4CCC(=O)C4(C)CCC32)C1,"5,6-dehydroisoandrosterone acetate",-4.46,log(mol/L),-4.46,log(mol/L),853-23-6,330.46800000000013,3,0,4.450000000000005,1,3.467368504525317e-05
Oc1cc(Cl)ccc1Oc1ccc(Cl)cc1Cl,triclosan,-4.46,log(mol/L),-4.46,log(mol/L),-,289.54499999999996,2,1,5.144700000000002,0,3.467368504525317e-05
CN(C)CCC=C1c2ccccc2CCc2ccccc21,Amitriptyline,-4.46,log(mol/L),-4.46,log(mol/L),50-48-6,277.411,1,0,4.168600000000003,1,3.467368504525317e-05
CN(C)CCC=C1c2ccccc2CCc2ccccc21,Amitriptyline,-4.46,log(mol/L),-4.46,log(mol/L),-,277.411,1,0,4.168600000000003,1,3.467368504525317e-05
Oc1cc(Cl)ccc1Oc1ccc(Cl)cc1Cl,"5-CHLORO-2-(2,4-DICHLOROPHENOXY)PHENOL",10.0,mg/L,-4.462,log(mol/L),3380-34-5,289.54499999999996,2,1,5.144700000000002,0,3.451437393358564e-05
CC1CCC(C)CC1,"1,4-dimethylcyclohexane",-4.47,log(mol/L),-4.47,log(mol/L),-,112.216,0,0,2.832600000000001,1,3.3884415613920276e-05
CC(=O)OCN1C(=O)NC(c2ccccc2)(c2ccccc2)C1=O,3-Ethanoyloxymethylphenytoin,-4.47,log(mol/L),-4.47,log(mol/L),-,324.33600000000007,4,1,2.0026,1,3.3884415613920276e-05
CC1CCC(C)CC1,"trans-1,4-Dimethylcyclohexane",-4.47,log(mol/L),-4.47,log(mol/L),-,112.216,0,0,2.832600000000001,1,3.3884415613920276e-05
CC(=O)Oc1c(C(C)(C)C)cc([N+](=O)[O-])c(C)c1[N+](=O)[O-],medinoterb acetate,-4.47,log(mol/L),-4.47,log(mol/L),-,296.279,6,0,3.034220000000002,1,3.3884415613920276e-05
CC1CCC(C)CC1,"1,4-dimethylcyclohexane",-4.47,log(mol/L),-4.47,log(mol/L),589-90-2,112.216,0,0,2.832600000000001,1,3.3884415613920276e-05
O=C(O)c1cc(-c2ccc(F)cc2F)ccc1O,Diflunisal,-4.48,log(mol/L),-4.48,log(mol/L),-,250.19999999999996,2,2,3.035600000000001,1,3.3113112148259076e-05
CC(C(=O)O)c1ccc(-c2ccccc2)c(F)c1,Flurbiprofen,-4.48,log(mol/L),-4.48,log(mol/L),-,244.265,1,1,3.6808000000000023,1,3.3113112148259076e-05
Clc1cc(Cl)cc(Cl)c1,"1,3,5-trichlorobenzene",-4.48,log(mol/L),-4.48,log(mol/L),108-70-3,181.449,0,0,3.6468000000000007,1,3.3113112148259076e-05
CC1CCC(C)(C)C1,"1,1,3-trimethylcyclopentane",-4.48,log(mol/L),-4.48,log(mol/L),4516-69-2,112.216,0,0,2.832600000000001,1,3.3113112148259076e-05
Clc1cc(Cl)cc(Cl)c1,"1,3,5-trichlorobenzene",-4.48,log(mol/L),-4.48,log(mol/L),-,181.449,0,0,3.6468000000000007,1,3.3113112148259076e-05
CC1CCC(C)(C)C1,"1,1,3-trimethylcyclopentane",-4.48,log(mol/L),-4.48,log(mol/L),-,112.216,0,0,2.832600000000001,1,3.3113112148259076e-05
CC(C(=O)O)c1ccc(-c2ccccc2)c(F)c1,Flurbiprofen,-4.49,log(mol/L),-4.49,log(mol/L),5104-49-4,244.265,1,1,3.6808000000000023,1,3.235936569296281e-05
CC1=C(CC(=O)O)c2cc(F)ccc2C1=Cc1ccc(S(C)=O)cc1,sulindac_form_II,31.9025,?M/L,-4.496,log(mol/L),-,356.41800000000006,2,1,4.365500000000003,1,3.191537855100758e-05
COc1ccc2cc(C(C)C(=O)O)ccc2c1,Naproxen,31.9125,?M/L,-4.496,log(mol/L),-,230.26299999999998,2,1,3.036500000000001,1,3.191537855100758e-05
Brc1ccc(Br)c(Br)c1,"1,2,4-tribromobenzene",-4.5,log(mol/L),-4.5,log(mol/L),615-54-3,314.80199999999996,0,0,3.974100000000001,1,3.1622776601683795e-05
Brc1ccc(Br)c(Br)c1,"1,2,4-tribromobenzene",-4.5,log(mol/L),-4.5,log(mol/L),-,314.80199999999996,0,0,3.974100000000001,1,3.1622776601683795e-05
ClC1C(Cl)C(Cl)C(Cl)C(Cl)C1Cl,delta-hexachlorocyclohexane,-4.51,log(mol/L),-4.51,log(mol/L),319-86-8,290.832,0,0,3.644400000000001,1,3.090295432513592e-05
CCOP(=S)(OCC)SCn1nnc2ccccc2c1=O,Azinphos Ethyl,10.5,mg/L,-4.517,log(mol/L),2642-71-9,345.3860000000001,8,0,2.779700000000001,1,3.0408850256762767e-05
CCOP(=S)(OCC)SCn1nnc2ccccc2c1=O,-,1.021189,log(mg/L),-4.517,log(mol/L),2642-71-9,345.3860000000001,8,0,2.779700000000001,1,3.0408850256762767e-05
FC(F)(F)C(F)(F)C(F)(F)F,OCTAFLUOROPROPANE,5.7,mg/L,-4.518,log(mol/L),76-19-7,188.017,0,0,2.7462999999999997,1,3.0338911841942718e-05
COP(=O)(OC)OC(=CCl)c1cc(Cl)c(Cl)cc1Cl,Stirofos,-4.52,log(mol/L),-4.52,log(mol/L),-,365.96400000000006,4,0,5.6015000000000015,0,3.0199517204020192e-05
CN1CCN(CCCN2c3ccccc3Sc3ccc(C(F)(F)F)cc32)CC1,Trifluoperazine,-4.52,log(mol/L),-4.52,log(mol/L),-,407.50500000000017,4,0,4.945600000000005,1,3.0199517204020192e-05
CN1CCN(CCCN2c3ccccc3Sc3ccc(C(F)(F)F)cc32)CC1,Trifluoperazine,-4.52,log(mol/L),-4.52,log(mol/L),117-89-5,407.50500000000017,4,0,4.945600000000005,1,3.0199517204020192e-05
COP(=O)(OC)OC(=CCl)c1cc(Cl)c(Cl)cc1Cl,Stirofos,-4.522,log(mol/L),-4.522,log(mol/L),-,365.96400000000006,4,0,5.6015000000000015,0,3.006076302628229e-05
CC(C)OC(=O)C(O)(c1ccc(Cl)cc1)c1cccc(Cl)c1,chloropropylate,-4.53,log(mol/L),-4.53,log(mol/L),-,339.2180000000001,3,1,4.180900000000003,1,2.951209226666384e-05
CCCCCCC,Heptane,-4.53,log(mol/L),-4.53,log(mol/L),-,100.205,0,0,2.976700000000002,1,2.951209226666384e-05
CCCCCCC,n-heptane,-4.53,log(mol/L),-4.53,log(mol/L),142-82-5,100.205,0,0,2.976700000000002,1,2.951209226666384e-05
CC(C)OC(=O)C(O)(c1ccc(Cl)cc1)c1ccc(Cl)cc1,chloropropylate,-4.53,log(mol/L),-4.53,log(mol/L),-,339.2180000000001,3,1,4.180900000000003,1,2.951209226666384e-05
CCCCCCC,n-heptane,-4.53,log(mol/L),-4.53,log(mol/L),-,100.205,0,0,2.976700000000002,1,2.951209226666384e-05
NC1C2CN(c3nc4c(cc3F)c(=O)c(C(=O)O)cn4-c3ccc(F)cc3F)CC12,Trovafloxacin,-4.53,log(mol/L),-4.53,log(mol/L),-,416.3590000000001,6,2,1.8944999999999996,1,2.951209226666384e-05