SMILES,NAME,Water solubility,UNIT {Water solubility},Solubility_log(mol/L),UNIT {Water solubility}.1,CASRN
CC(C)C1CCC(C)CC1=O,Menthone,-2.35,log(mol/L),-2.35,log(mol/L),-
CC(=O)NC1=CC=C(OCC)C=C1,phenacetin,-2.35,log(mol/L),-2.35,log(mol/L),-
NC1=C(CC)C=CC=C1CC,"2,6-diethylaniline",-2.35,log(mol/L),-2.35,log(mol/L),579-66-8
O=C(OCC)C1=CC=CC=C1C(OCC)=O,diethyl phthalate,-2.35,log(mol/L),-2.35,log(mol/L),84-66-2
O=C(C1=CC=C(O)C=C1)OCC,ethyl-p-hydroxybenzoate,-2.35,log(mol/L),-2.35,log(mol/L),120-47-8
CCOC(=O)C1=CC=C(O)C=C1,ethyl-p-hydroxybenzoate,-2.35,log(mol/L),-2.35,log(mol/L),-
CCOC(=O)C1=CC=CC=C1C(=O)OCC,diethyl phthalate,-2.35,log(mol/L),-2.35,log(mol/L),-
O=C1C(CCC(C1)C)C(C)C,Menthone,-2.35,log(mol/L),-2.35,log(mol/L),-
CCOC1=CC=C(NC(=O)C)C=C1,phenacetin,-2.35,log(mol/L),-2.35,log(mol/L),-
C(CCCCC)(=O)OCC,Ethyl hexanoate,-2.35,log(mol/L),-2.35,log(mol/L),-
O=C1NC(=O)NC(=O)C1(C(C)CCC)CC=C,Secobarbital,-2.356,log(mol/L),-2.356,log(mol/L),-
CC(NC1=NN=C(S(N)(=O)=O)S1)=O,acetazoleamide,-2.36,log(mol/L),-2.36,log(mol/L),59-66-5
C#CCCCC,1-hexyne,-2.36,log(mol/L),-2.36,log(mol/L),693-02-7
CNC(OC1=CC=C(C(C)=C1)N(C)C)=O,aminocarb,-2.36,log(mol/L),-2.36,log(mol/L),2032-59-9
CCCCCCCC=O,octanal,-2.36,log(mol/L),-2.36,log(mol/L),124-13-0
CC(=O)NC1=NN=C(S1)S(N)(=O)=O,Acetazolamide,-2.36,log(mol/L),-2.36,log(mol/L),-
CSC1=NC=2N=CC=NC2C=N1,4-methylthiopteridine,-2.36,log(mol/L),-2.36,log(mol/L),-
SC1=NC=NC=2N=CC=NC12,2-mercaptopteridine,-2.36,log(mol/L),-2.36,log(mol/L),-
CC(=O)NC1=NN=C(S1)S(=O)(=O)N,Acetazolamide,-2.36,log(mol/L),-2.36,log(mol/L),-
O=C(NC1CCCCCCC1)N(C)C,cycluron,-2.36,log(mol/L),-2.36,log(mol/L),2163-69-1
CNC(=O)OC1=CC=C(N(C)C)C(C)=C1,aminocarb,-2.36,log(mol/L),-2.36,log(mol/L),-
CCCCC#C,1-hexyne,-2.36,log(mol/L),-2.36,log(mol/L),-
CSC=1C=2N=CC=NC2N=CN1,4-methylthiopteridine,-2.36,log(mol/L),-2.36,log(mol/L),6966-78-5
S=C1N=CC2=C(N1)N=CC=N2,2-mercaptopteridine,-2.36,log(mol/L),-2.36,log(mol/L),16878-76-5
C(CC)CC#C,1-hexyne,-2.36,log(mol/L),-2.36,log(mol/L),-
O=C1NC(=O)NC(=O)C1(CC=C)C2=CC=CC=C2,5-Allyl-5-phenylbarbital,-2.369,log(mol/L),-2.369,log(mol/L),-
CCCCBr,1-bromobutane,-2.37,log(mol/L),-2.37,log(mol/L),109-65-9
NC1=CC=C(N(=O)=O)C=C1,p-Nitroaniline,-2.37,log(mol/L),-2.37,log(mol/L),-
NC1=CC=C(N(=O)=O)C=C1,4-nitroaniline,-2.37,log(mol/L),-2.37,log(mol/L),100-01-6
CCOC1=CC=C(NC(C)=O)C=C1,phenacetin,-2.37,log(mol/L),-2.37,log(mol/L),62-44-2
CCCCBr,1-bromobutane,-2.37,log(mol/L),-2.37,log(mol/L),-
BrCCCC,1-bromobutane,-2.37,log(mol/L),-2.37,log(mol/L),-
ClC1=CC=CC=C1,chlorobenzene,-2.38,log(mol/L),-2.38,log(mol/L),-
BrC(CCl)CBr,"1,2-dibromo-3-chloropropane",-2.38,log(mol/L),-2.38,log(mol/L),96-12-8
N#CC1=CC=CC=C1C#N,phthalonitrile,-2.38,log(mol/L),-2.38,log(mol/L),91-15-6
OC=1C=2C=NNC2N=CN1,allopurinol,-2.38,log(mol/L),-2.38,log(mol/L),315-30-0
FC1=C(F)C=C(F)C(F)=C1,"1,2,4,5-tetrafluorobenzene",-2.38,log(mol/L),-2.38,log(mol/L),327-54-8
ClC1=CC=CC=C1,chlorobenzene,-2.38,log(mol/L),-2.38,log(mol/L),108-90-7
N#CC1=CC=CC=C1C#N,phthalonitrile,-2.38,log(mol/L),-2.38,log(mol/L),-
BrC(CBr)CCl,"1,2-dibromo-3-chloropropane",-2.38,log(mol/L),-2.38,log(mol/L),-
OC1=CC=CC=C1C2=CC=CC=C2,2-phenylphenol,-2.39,log(mol/L),-2.39,log(mol/L),90-43-7
O=C1NC(=O)NC(=O)C1(C(CC)C)CC,Butabarbital,-2.39,log(mol/L),-2.39,log(mol/L),-
ClCC1=CC=CC=C1,alfa-chlorotoluene,-2.39,log(mol/L),-2.39,log(mol/L),100-44-7
CSC1=CC=CC=C1,thioanisole,-2.39,log(mol/L),-2.39,log(mol/L),100-68-5
CCCCCCCCO,1-octanol,-2.39,log(mol/L),-2.39,log(mol/L),111-87-5
CCCCCCCCO,1-octanol,-2.39,log(mol/L),-2.39,log(mol/L),-
CC1=CSC=C1,3-methylthiophene,-2.39,log(mol/L),-2.39,log(mol/L),616-44-4
O=C1NC(=O)NC(=O)C1(CC)C(C)CCC,pentobarbital,-2.39,log(mol/L),-2.39,log(mol/L),-
C1=CC=CC=C1SC,thioanisole,-2.39,log(mol/L),-2.39,log(mol/L),-
O=C1NC(=O)NC(=O)C1(CC)C(C)CC,Butabarbital,-2.39,log(mol/L),-2.39,log(mol/L),-
ClCC1=CC=CC=C1,Benzylchloride,-2.39,log(mol/L),-2.39,log(mol/L),-
COC=1C=2OC=CC2C(=C3C1OC(C)=CC3=O)OC,khellin,-2.4,log(mol/L),-2.4,log(mol/L),82-02-0
CC(=C)C(=C)C,"2,3-Dimethyl-1,3-Butadiene",-2.4,log(mol/L),-2.4,log(mol/L),-
ClC(Cl)CCC,"1,1-dichlorobutane",-2.4,log(mol/L),-2.4,log(mol/L),541-33-3
O=C1NC(=O)NC(=O)C1(CC)CC,barbital,-2.4,log(mol/L),-2.4,log(mol/L),-
O1C=2C(=C(OC)C3=C(OC=C3)C2OC)C(=O)C=C1C,khellin,-2.4,log(mol/L),-2.4,log(mol/L),-
NC1=NC(N)=C2N=C(C3=CC=CC=C3)C(N)=NC2=N1,Triamterene,-2.404,log(mol/L),-2.404,log(mol/L),-
CC(C)(C1=CC=C(O)C=C1)C,p-t-butylphenol,-2.41,log(mol/L),-2.41,log(mol/L),98-54-4
COC1=CC=C(C=C1)N(=O)=O,p-Nitroanisole,-2.41,log(mol/L),-2.41,log(mol/L),-
CC(C)(C)C1=CC=C(O)C=C1,p-t-butylphenol,-2.41,log(mol/L),-2.41,log(mol/L),-
CC1=NN=C(NS(=O)(C2=CC=C(N)C=C2)=O)S1,sulfamethiazole,-2.41,log(mol/L),-2.41,log(mol/L),144-82-1
O=C(C1=CC=C(C=C1)OC)OC,methyl-4-methoxybenzoate,-2.41,log(mol/L),-2.41,log(mol/L),121-98-2
O=N(C1=CC=C(OC)C=C1)=O,4-nitroanisole,-2.41,log(mol/L),-2.41,log(mol/L),100-17-4
CCSSCC,Diethyldisulfide,-2.42,log(mol/L),-2.42,log(mol/L),-
OC=1C=2N=CC=CC2C=CC1,8-quinolinol,-2.42,log(mol/L),-2.42,log(mol/L),148-24-3
CC1=CNC2=C1C=CC=C2,3-methylindole,-2.42,log(mol/L),-2.42,log(mol/L),83-34-1
CC1=CNC=2C=CC=CC12,3-methylindole,-2.42,log(mol/L),-2.42,log(mol/L),-
OC1=CC=CC=2C=CC=NC12,8-quinolinol,-2.42,log(mol/L),-2.42,log(mol/L),-
CC(C)CBr,1-bromo-2-methylpropane,-2.43,log(mol/L),-2.43,log(mol/L),-
NC1=CC=C(S(NC2=NC=CS2)(=O)=O)C=C1,sulfathiozole,-2.43,log(mol/L),-2.43,log(mol/L),72-14-0
S=C1NC(C)=CC(N1)=O,methylthiouracil,-2.43,log(mol/L),-2.43,log(mol/L),56-04-2
O=C(C=1S(=O)(CCOC1C)=O)NC2=CC=CC=C2,oxycarboxin,-2.43,log(mol/L),-2.43,log(mol/L),5259-88-1
CC(C)CBr,1-bromo-2-methylpropane,-2.43,log(mol/L),-2.43,log(mol/L),78-77-3
BrCC(C)C,1-bromo-2-methylpropane,-2.43,log(mol/L),-2.43,log(mol/L),-
OCCC(F)(F)C(F)(F)C(F)(F)C(F)(F)F,-,2.99,log(mg/L),-2.432,log(mol/L),2043-47-2
S(=O)(=O)(N)C=1SC(NC(=O)C)=NN1,Acetazolamide,3671.3,?M/L,-2.435,log(mol/L),-
CC1=CC(=O)NC(=S)N1,methylthiouracil,-2.436,log(mol/L),-2.436,log(mol/L),-
O=N(C1=CC(C)=CC=C1)=O,3-nitrotoluene,-2.44,log(mol/L),-2.44,log(mol/L),99-08-1
O=S(C1=CC=C(N)C=C1)(NC2=NC(C)=C(C)O2)=O,sulfamoxole,-2.44,log(mol/L),-2.44,log(mol/L),729-99-7
CC1=CC=CC(=C1)N(=O)=O,m-Nitrotoluene,-2.44,log(mol/L),-2.44,log(mol/L),-
C1=CC(N)=CC=C1S(=O)(=O)NC2=NC(C)=C(C)O2,sulfamoxole,-2.44,log(mol/L),-2.44,log(mol/L),-
CC(C(O)=O)OC1=CC=C(Cl)C=C1Cl,dichlorprop,-2.45,log(mol/L),-2.45,log(mol/L),120-36-5
O=C1NC(NC=C1C)=S,5-methyl-2-thiouracil,-2.45,log(mol/L),-2.45,log(mol/L),636-26-0
N1=CC(=C(N=C1S)O)C,5-methyl-2-thiouracil,-2.45,log(mol/L),-2.45,log(mol/L),636-26-0
OC1=C2C=NNC2=NC=N1,allopurinol,-2.45,log(mol/L),-2.45,log(mol/L),-
CCCOC(=O)C1=CC=C(N)C=C1,risocaine,-2.452,log(mol/L),-2.452,log(mol/L),-
CC(OCCCCCC)=O,hexyl acetate,-2.46,log(mol/L),-2.46,log(mol/L),142-92-7
CC(C)=CCCC(C)=CCO,Nerol,-2.46,log(mol/L),-2.46,log(mol/L),-
COC1=CC=CC=C1Cl,2-Chloroanisole,-2.46,log(mol/L),-2.46,log(mol/L),-
CCCC=C(CC)C=O,2-Ethyl-2-hexanal,-2.46,log(mol/L),-2.46,log(mol/L),-
CC1=CC(=NO1)C(=O)NNCC2=CC=CC=C2,Isocarboxazid,-2.461,log(mol/L),-2.461,log(mol/L),-
CCC1(CCC(C)C)C(=O)NC(=O)NC1=O,amobarbital,-2.468,log(mol/L),-2.468,log(mol/L),-
CCCCCC(O)C=CC1C(O)CC(=O)C1CC=CCCCC(=O)O,Prostaglandin_E2,-2.47,log(mol/L),-2.47,log(mol/L),-
ClC1=C(C=C(C=C1C(=O)O)Cl)N,chloramben,-2.47,log(mol/L),-2.47,log(mol/L),-
O=C(O)C1=C(Cl)C(N)=CC(Cl)=C1,chloramben,-2.47,log(mol/L),-2.47,log(mol/L),133-90-4
CCCCCC(O)C=CC1C(O)CC(C1CC=CCCCC(O)=O)=O,Prostaglandin E2,-2.47,log(mol/L),-2.47,log(mol/L),363-24-6
COC1=NC(NC(C)C)=NC(NC(C)C)=N1,Prometon,-2.478,log(mol/L),-2.478,log(mol/L),-
OC(C=CC1=CC=CC=C1)=O,cinnamic acid,-2.48,log(mol/L),-2.48,log(mol/L),621-82-9
NS(=O)(=O)N=C(N)CCSCC1=CSC(N=C(N)N)=N1,Famotidine,-2.48,log(mol/L),-2.48,log(mol/L),-
O=C1N(C(C)(C)C)C(NC(=C1Cl)C)=O,terbacil,-2.48,log(mol/L),-2.48,log(mol/L),5902-51-2
O=C(CCl)N(C(C)C)C1=CC=CC=C1,propachlor,-2.48,log(mol/L),-2.48,log(mol/L),1918-16-7
CC(C)N(C(=O)CCl)C1=CC=CC=C1,propachlor,-2.48,log(mol/L),-2.48,log(mol/L),-
BrC1=CC=C(S(=O)(=O)CC(=O)OC)C=C1,"ACETIC ACID, [(4-BROMOPHENYL)SULFONYL]-, METHYL",971.0,mg/L,-2.48,log(mol/L),50397-65-4
C1=CC(N)=CC=C1S(=O)(=O)NC2=NN=C(C)S2,Sulfamethizole,-2.48,log(mol/L),-2.48,log(mol/L),-
CC=1NC(=O)N(C(=O)C1Cl)C(C)(C)C,terbacil,-2.484,log(mol/L),-2.484,log(mol/L),-
CC1CCC(C(C)C)C(C1)=O,l-menthone,-2.49,log(mol/L),-2.49,log(mol/L),14073-97-3
CC1=CC=C(N(=O)=O)C=C1,4-nitrotoluene,-2.49,log(mol/L),-2.49,log(mol/L),99-99-0
CC1=CC=C(N(=O)=O)C=C1,p-Nitrotoluene,-2.49,log(mol/L),-2.49,log(mol/L),-
S(CC=1OC(CN(C)C)=CC1)CCNC(NC)=CN(=O)=O,Ranitidine,3156.04,?M/L,-2.501,log(mol/L),-
CC(C)(Cl)CC,2-chloro-2-methylbutane,-2.51,log(mol/L),-2.51,log(mol/L),594-36-5
ClC1=C(OCC(O)=O)C=CC(Cl)=C1,"2,4-d",-2.51,log(mol/L),-2.51,log(mol/L),94-75-7
FC(F)(F)C1=CC=CC=C1,Benzyltrifluoride,-2.51,log(mol/L),-2.51,log(mol/L),-
CCC(C)(C)Cl,2-chloro-2-methylbutane,-2.51,log(mol/L),-2.51,log(mol/L),-
CC(CC1=CC=CC=C1)N(C)CC#C,Deprenyl,3072.66,?M/L,-2.512,log(mol/L),-
CCOC(=O)N(C)C(=O)CSP(=S)(OCC)OCC,Mecarbam,-2.518,log(mol/L),-2.518,log(mol/L),-
C1=CC(O)=C2C(=O)C3=C(O)C4(O)C(=O)C(C(=O)N)=C(O)C(N(C)C)C4CC3C(O)C2=C1Cl,demeclocycline,-2.52,log(mol/L),-2.52,log(mol/L),-
ClC1=CC=C(C2=C1C(C3CC4C(C(=C3C2=O)O)(C(C(=C(C4N(C)C)O)C(=O)N)=O)O)O)O,demeclocycline,-2.52,log(mol/L),-2.52,log(mol/L),-
OC(C1=CC=CC=C1)CC2=CC=CC=C2,"dl-1,2-diphenylethanol",-2.52,log(mol/L),-2.52,log(mol/L),614-29-9
CC(C1(C(NC(=O)NC1=O)=O)CC)CCC,pentobarbital,-2.52,log(mol/L),-2.52,log(mol/L),76-74-4
ClC1=C2C(O)C3CC4C(O)(C(=O)C3=C(O)C2=C(O)C=C1)C(O)=C(C(=O)C4N(C)C)C(=O)N,demeclocycline,-2.52,log(mol/L),-2.52,log(mol/L),127-33-3
BrC1=C(NC(N(C1=O)C(CC)C)=O)C,Bromacil,-2.52,log(mol/L),-2.52,log(mol/L),-
O=C1C2=C(O)C=CC(Cl)=C2C(O)C3C1=C(O)C4(C(C(C(N)=O)=C(O)C(N(C)C)C4C3)=O)O,demeclocycline,-2.52,log(mol/L),-2.52,log(mol/L),127-33-3
CN1C=NC=2N(C)C(=O)NC(=O)C12,theobromine,-2.523,log(mol/L),-2.523,log(mol/L),-
CCC(C)N1C(=O)NC(C)=C(Br)C1=O,Bromacil,-2.523,log(mol/L),-2.523,log(mol/L),-
COC1=C(O)C=C(Cl)C(Cl)=C1,"4,5-dichloroquiaiacol",-2.53,log(mol/L),-2.53,log(mol/L),2460-49-3
C1CNC(C)CN1C2=C(F)C=C3C(=O)C(C(=O)O)=CN(CC)C3=C2F,Lomefloxacin,-2.53,log(mol/L),-2.53,log(mol/L),-
CC(C1CCC(C)CC1O)C,menthol,-2.53,log(mol/L),-2.53,log(mol/L),89-78-1
OC1C(CCC(C)C1)C(C)C,menthol,-2.53,log(mol/L),-2.53,log(mol/L),-
CC(C)C1CCC(C)CC1O,menthol,-2.53,log(mol/L),-2.53,log(mol/L),-
OC1C2C(O)(C(=O)C=3C1C(C4=C(C3O)C(O)=CC=C4)C)C(O)=C(C(=O)C2N(C)C)C(=O)N,Doxycycline,-2.53,log(mol/L),-2.53,log(mol/L),-
ClC1=C(C=C(C(=C1)OC)O)Cl,"4,5-dichloroquiaiacol",-2.53,log(mol/L),-2.53,log(mol/L),-
ClC(Cl)=C(Cl)Cl,tetrachloroethylene,-2.54,log(mol/L),-2.54,log(mol/L),127-18-4
C(C)C=CC,trans-2-pentene,-2.54,log(mol/L),-2.54,log(mol/L),-
COC1=CC(NS(=O)(C2=CC=C(C=C2)N)=O)=NC(C)=N1,sulfamethomidine,-2.54,log(mol/L),-2.54,log(mol/L),3772-76-7
CCC=CC,trans-2-pentene,-2.54,log(mol/L),-2.54,log(mol/L),-
CCC=CC,cis-2-Pentene,-2.54,log(mol/L),-2.54,log(mol/L),-
OC=1C=2C=CC=NC2C=CC1,5-hydroxyquinoline,-2.54,log(mol/L),-2.54,log(mol/L),578-67-6
OC1=CC=CC=2N=CC=CC12,5-hydroxyquinoline,-2.54,log(mol/L),-2.54,log(mol/L),-
ClC(Cl)=C(Cl)Cl,tetrachloroethylene,-2.54,log(mol/L),-2.54,log(mol/L),-
CC=CCC,trans-2-pentene,-2.54,log(mol/L),-2.54,log(mol/L),646-04-8
ClCC1=CC=C(C=C1)F,p-fluorobenzyl chloride,-2.54,log(mol/L),-2.54,log(mol/L),352-11-4
O=C1C=2C(NC=CC2)=CC=C1,5-hydroxyquinoline,-2.54,log(mol/L),-2.54,log(mol/L),-
C1(=CC=CC=C1)Br,bromobenzene,446.0,mg/L,-2.547,log(mol/L),108-86-1
BrC1=CC=CC=C1,bromobenzene,-2.55,log(mol/L),-2.55,log(mol/L),108-86-1
OC(C1=CC=CC=C1)C2=CC=CC=C2,benzhydrol,-2.55,log(mol/L),-2.55,log(mol/L),91-01-0
BrC1=CC=CC=C1,bromobenzene,-2.55,log(mol/L),-2.55,log(mol/L),-
ClC1=CC(C)=C(OC(C)C(O)=O)C=C1,Mecoprop,-2.55,log(mol/L),-2.55,log(mol/L),93-65-2
C(C)(C)C,2-Methylpropane,-2.55,log(mol/L),-2.55,log(mol/L),-
ClC1=CC=CC=C1N(=O)=O,o-Chloronitrobenzene,-2.55,log(mol/L),-2.55,log(mol/L),-
CC(C)C,2-Methylpropane,-2.55,log(mol/L),-2.55,log(mol/L),-
C1=CC=CC=C1C(O)C2=CC=CC=C2,benzhydrol,-2.55,log(mol/L),-2.55,log(mol/L),-
O=C(C1=CC=C(O)C=C1)OCCC,Propylparaben,-2.56,log(mol/L),-2.56,log(mol/L),-
CC1=C(CCCO1)C(=O)NC2=CC=CC=C2,pyracarbolid,-2.56,log(mol/L),-2.56,log(mol/L),-
O=C1C(N)=C(C)C(=O)C2=C1C(COC(=O)N)C3(OC)C4NC4CN23,Mitomycin_C,-2.56,log(mol/L),-2.56,log(mol/L),-
CC(=CC)C,2-Methy-2-Butene,-2.56,log(mol/L),-2.56,log(mol/L),-
CC1=C(C(NC2=CC=CC=C2)=O)CCCO1,pyracarbolid,-2.56,log(mol/L),-2.56,log(mol/L),24691-76-7
CC=C(C)C,2-Methy-2-Butene,-2.56,log(mol/L),-2.56,log(mol/L),-
COC1=CC=C(NC(=O)N(C)C)C=C1Cl,Metoxuron,-2.564,log(mol/L),-2.564,log(mol/L),-
O=C(N(OC)C)NC1=CC=C(Cl)C=C1,monolinuron,-2.57,log(mol/L),-2.57,log(mol/L),1746-81-2
O=C1NC(C(C(N1)=O)(CCC(C)C)CC)=O,amobarbital,-2.57,log(mol/L),-2.57,log(mol/L),57-43-2
NC(CC)CC1=CNC=2C=CC=CC21,etryptamine,-2.57,log(mol/L),-2.57,log(mol/L),2235-90-7
CCCC,Butane,-2.57,log(mol/L),-2.57,log(mol/L),-
C(CC)C,Butane,-2.57,log(mol/L),-2.57,log(mol/L),-
CON(C)C(=O)NC1=CC=C(Cl)C=C1,monolinuron,-2.57,log(mol/L),-2.57,log(mol/L),-
NC(CC1=CC=C(O)C=C1)C(O)=O,l-tyrosine,-2.57,log(mol/L),-2.57,log(mol/L),60-18-4
CC(CCCCCCC)=O,2-nonanone,-2.58,log(mol/L),-2.58,log(mol/L),821-55-6
COC1=CN=C(NS(=O)(C2=CC=C(C=C2)N)=O)N=C1,sulfameter,-2.58,log(mol/L),-2.58,log(mol/L),651-06-9
OC1=C(C(CCN(C(C)C)C(C)C)C2=CC=CC=C2)C=C(C=C1)C,Tolterodine,-2.58,log(mol/L),-2.58,log(mol/L),-
CCCCC(CCCC)=O,5-nonanone,-2.58,log(mol/L),-2.58,log(mol/L),-
CCCSCCC,Di-n-propylsulfide,-2.58,log(mol/L),-2.58,log(mol/L),-
CCCCCCCC(=O)C,2-nonanone,-2.58,log(mol/L),-2.58,log(mol/L),-
CNC(=O)OC1=CC(C)=CC(C)=C1,XMC,-2.581,log(mol/L),-2.581,log(mol/L),-
OC(=O)C1=CC(Br)=CC=C1OC(=O)C,2-(Acetyloxy)-4-bromo-benzoic acid,667.0,mg/L,-2.589,log(mol/L),1503-53-3
OC1=C(C=CC(O)=C1)CCCCCC,4-hexylresorcinol,-2.59,log(mol/L),-2.59,log(mol/L),136-77-6
CCCCC(CCCC)=O,5-nonanone,-2.59,log(mol/L),-2.59,log(mol/L),502-56-7
C1(O)=CC(O)=CC=C1CCCCCC,4-hexylresorcinol,-2.59,log(mol/L),-2.59,log(mol/L),-
C1CCC=CC1,cyclohexene,-2.59,log(mol/L),-2.59,log(mol/L),-
CCC1=CC=CS1,2-ethylthiophene,-2.59,log(mol/L),-2.59,log(mol/L),872-55-9
OC(C1=CC(Cl)=CC=C1)=O,m-chlorobenzoic acid,-2.59,log(mol/L),-2.59,log(mol/L),535-80-8
C1=CCCCC1,cyclohexene,-2.59,log(mol/L),-2.59,log(mol/L),110-83-8
O=C1NC(=O)NC(=O)C1(C(C)C)CC=C(C)C,5-(3-Methyl-2-butenyl)-5-isoPrbarbital,-2.593,log(mol/L),-2.593,log(mol/L),-
COC1=CC=C(C=C1)C(O)(C2CC2)C3=CN=CN=C3,ancymidol,-2.596,log(mol/L),-2.596,log(mol/L),-
CC1(C(N(Cl)C(=O)N1Cl)=O)C,"1,3-dichloro-5,5-dimethylhydantoin",-2.6,log(mol/L),-2.6,log(mol/L),118-52-5
CC1=CC=C(C(O)=O)C=C1,p-toluic acid,-2.6,log(mol/L),-2.6,log(mol/L),99-94-5
C1(CN(C2=CC=CC=C2)CC3=CC=CC=C3)=NCCN1,antazoline,-2.6,log(mol/L),-2.6,log(mol/L),91-75-8
C(Cl)(Cl)C(Cl)(Cl)Cl,pentachloroethane,-2.6,log(mol/L),-2.6,log(mol/L),76-01-7
COC1=CC=C(C(C2CC2)(C3=CN=CN=C3)O)C=C1,ancymidol,-2.6,log(mol/L),-2.6,log(mol/L),12771-68-5
N1C=2C(C(CC(N)CC)=C1)=CC=CC2,etryptamine,-2.6,log(mol/L),-2.6,log(mol/L),-
N1CCN=C1CN(C2=CC=CC=C2)CC3=CC=CC=C3,antazoline,-2.6,log(mol/L),-2.6,log(mol/L),-
ClC(Cl)C(Cl)(Cl)Cl,pentachloroethane,-2.6,log(mol/L),-2.6,log(mol/L),-
S1C(=C(N=C1[H])C=2N(C=3C(N2)=C(C(=C(C3[H])[H])[H])[H])[H])[H],Thiabendazole,-2.6,log(mol/L),-2.6,log(mol/L),-
OC(CN1C(SC2=C1C(Cl)=CC=C2)=O)=O,benazolin,-2.61,log(mol/L),-2.61,log(mol/L),-
ClC1=C2C(=CC=C1)SC(N2CC(=O)O)=O,benazolin,-2.61,log(mol/L),-2.61,log(mol/L),-
O=C1NC(=O)C2=CC=CC=C12,phthalimide,-2.61,log(mol/L),-2.61,log(mol/L),-
O=C1NC(C2=CC=CC=C21)=O,phthalimide,-2.61,log(mol/L),-2.61,log(mol/L),85-41-6
C1=CC(N)=CC=C1S(=O)(=O)NC2=NC=CS2,Sulfathiazole,-2.61,log(mol/L),-2.61,log(mol/L),-
CCOC(=O)C1=CC=C(N)C=C1,Benzocaine,-2.616,log(mol/L),-2.616,log(mol/L),-
N(=O)(=O)NC1=C(C=CC=C1Br)Br,"Benzenamine, 2,6-dibromo-N-nitro-",715.0,mg/L,-2.617,log(mol/L),54381-71-4
CC(OC(=O)NC1=CC=CC(Cl)=C1)C#C,Chlorbufam,-2.617,log(mol/L),-2.617,log(mol/L),-
O=S(=O)(N)C1=C(C=C2NCNS(=O)(=O)C2=C1)Cl,Hydrochlorothiazide,-2.62,log(mol/L),-2.62,log(mol/L),-
C1=NN=NN1CC(=O)NC2C(=O)N3C(C(=O)O)=C(CSC4=NN=C(C)S4)CSC23,Cefazolin,-2.62,log(mol/L),-2.62,log(mol/L),-
O=S1(C2=C(C=C(Cl)C(S(N)(=O)=O)=C2)NCN1)=O,hydrochlorthiazide,-2.62,log(mol/L),-2.62,log(mol/L),58-93-5
O=S(NC1=NOC(C)=C1)(C2=CC=C(N)C=C2)=O,sulfamethoxazole,-2.62,log(mol/L),-2.62,log(mol/L),723-46-6
NC(OCCCCCCC)=O,n-heptyl carbamate,-2.62,log(mol/L),-2.62,log(mol/L),4248-20-8
CC1=CC(NS(=O)(=O)C2=CC=C(N)C=C2)=NO1,sulfamethoxazole,-2.62,log(mol/L),-2.62,log(mol/L),-
OC1=C(Br)C=C(C(O)=O)C(O)=C1,5_bromo_2_4_dihydroxybenzoic_acid,2397.22,?M/L,-2.62,log(mol/L),-
ClC1=CC2=C(C=C1S(=O)(=O)N)S(NCN2)(=O)=O,hydrochlorthiazide,-2.62,log(mol/L),-2.62,log(mol/L),-
CCN1C2=NC=CC=C2N(C)C(=O)C3=CC=CN=C13,Reverse Transcriptase inhibitor 1,-2.62,log(mol/L),-2.62,log(mol/L),-
O=S(=O)(C1=CC(=CC=C1N)Br)O,"Benzenesulfonic acid, 2-amino-5-bromo-",595.0,mg/L,-2.627,log(mol/L),1576-59-6
O=N(=O)OC1C2OCC(ON(=O)=O)C2OC1,isosorbide dinitrate,-2.63,log(mol/L),-2.63,log(mol/L),-
CC(Cl)CCC,2-chloropentane,-2.63,log(mol/L),-2.63,log(mol/L),625-29-6
O=C(C1=CC=C(N)C=C1)CC,p-aminopropiophenone,-2.63,log(mol/L),-2.63,log(mol/L),70-69-9
ClC(CC)CC,3-chloropentane,-2.63,log(mol/L),-2.63,log(mol/L),616-20-6
OC(C1CC2CCN1CC2CC)C3=CC=NC4=C3C=CC=C4,hydrocinchonine,-2.63,log(mol/L),-2.63,log(mol/L),485-65-4
C12C(ON(=O)=O)COC1C(ON(=O)=O)CO2,isosorbide dinitrate,-2.63,log(mol/L),-2.63,log(mol/L),87-33-2
NS(=O)(=O)C1=CC2=C(NCNS2(=O)=O)C=C1Cl,Hydrochlorothiazide,-2.63,log(mol/L),-2.63,log(mol/L),-
C=12C=CC=CC1N=CC=C2C(O)C3N4CC(C(CC4)C3)CC,hydrocinchonine,-2.63,log(mol/L),-2.63,log(mol/L),485-65-4
CC(C)NCC(O)COC1=CC=CC=C1CC=C,Alprenolol,2321.89,?M/L,-2.634,log(mol/L),-
O=C(O)C=CC1=CC=CC(Br)=C1,M-BROMOCINNAMIC ACID,525.0,mg/L,-2.636,log(mol/L),32862-97-8
ClC1=C(C=CC(=C1O)Cl)Cl,"2,3,6-Trichlorophenol",-2.64,log(mol/L),-2.64,log(mol/L),-
C1CCCC1,cyclopentane,-2.64,log(mol/L),-2.64,log(mol/L),287-92-3
CN(C)CCN(C1=CC=CC=N1)CC2=CC=CS2,methapyrilene,-2.64,log(mol/L),-2.64,log(mol/L),91-80-5
CCC1(C(=O)NCNC1=O)C2=CC=CC=C2,Primidone,-2.64,log(mol/L),-2.64,log(mol/L),-
CN(CCN(C1=NC=CC=C1)CC2=CC=CC=C2)C,tripelenamine,-2.64,log(mol/L),-2.64,log(mol/L),91-81-6
O=C1NC(C(C(N1)=O)(CC)C2=CC3CCC(C2)C3)=O,reposal,-2.64,log(mol/L),-2.64,log(mol/L),3625-25-0
C1CCCC1,cyclopentane,-2.64,log(mol/L),-2.64,log(mol/L),-
O=C1NCNC(C1(C2=CC=CC=C2)CC)=O,Primidone,-2.64,log(mol/L),-2.64,log(mol/L),125-33-7
OC1=C(Cl)C=CC(Cl)=C1Cl,"2,3,6-Trichlorophenol",-2.64,log(mol/L),-2.64,log(mol/L),-
CN(C)CCN(C1=CC=CC=N1)CC2=CC=CS2,methapyrilene,-2.64,log(mol/L),-2.64,log(mol/L),-
N1=C(N(CC2=CC=CC=C2)CCN(C)C)C=CC=C1,Tripelennamine,-2.64,log(mol/L),-2.64,log(mol/L),-
NC(CCSCC1=CSC(N=C(N)N)=N1)=NS(=O)(N)=O,Famotidine,2255.02,?M/L,-2.647,log(mol/L),-
CCC(C)C1(CC(Br)=C)C(=O)NC(=O)NC1=O,butallylonal,-2.647,log(mol/L),-2.647,log(mol/L),-
OC(CC1=CC=CC=2C=CC=CC21)=O,1-naphthaceneacetic acid,-2.65,log(mol/L),-2.65,log(mol/L),86-87-3
N1=C(C=CC=C1)C(C2=CC=C(C=C2)Cl)CCN(C)C,Chlorpheniramine,-2.65,log(mol/L),-2.65,log(mol/L),-
BrC(=C)CC1(C(NC(NC1=O)=O)=O)C(CC)C,butallylonal,-2.65,log(mol/L),-2.65,log(mol/L),-
C1=CC2=C(C=C1Cl)NC(=O)O2,Chlorzoxazone,2205.23,?M/L,-2.657,log(mol/L),-
O=C1NC(=O)NC(=O)C1(CC)CCC(C)C,5-Ethyl-5-(3-methylbutyl)barbital,-2.658,log(mol/L),-2.658,log(mol/L),-
O1C2C34C(C(N(CC3)C)CC5=C4C1=C(OC)C=C5)=CC=C2OC,Thebaine,-2.66,log(mol/L),-2.66,log(mol/L),-
FC1=CC=CC(Br)=C1,m-Bromofluorobenzene,378.0,mg/L,-2.666,log(mol/L),1073-06-9
C(C(C1=CC=CC=N1)C2=CC=C(C=C2)Cl)CN(C)C,Chlorpheniramine,2154.31,?M/L,-2.667,log(mol/L),-
FC(F)(F)Br,Bromotrifluoromethane,320.0,mg/L,-2.668,log(mol/L),75-63-8
ClC1=C(C=C(C=C1O)Cl)Cl,"2,3,5-Trichlorophenol",-2.67,log(mol/L),-2.67,log(mol/L),-
O=C(C1=CC=CC=C1)OCCC,propyl benzoate,-2.67,log(mol/L),-2.67,log(mol/L),2315-68-6
ClC1=C(C(=CC=C1Cl)O)Cl,"2,3,4-Trichlorophenol",-2.67,log(mol/L),-2.67,log(mol/L),-
FC1=CC=CC(Br)=C1,m-Fluorobromobenzene,-2.67,log(mol/L),-2.67,log(mol/L),-
OC1=CC=C(Cl)C(Cl)=C1Cl,"2,3,4-Trichlorophenol",-2.67,log(mol/L),-2.67,log(mol/L),-
OC1=CC(Cl)=CC(Cl)=C1Cl,"2,3,5-Trichlorophenol",-2.67,log(mol/L),-2.67,log(mol/L),-
BrC1=CC(=CC=C1)F,m-Fluorobromobenzene,-2.67,log(mol/L),-2.67,log(mol/L),-
CN1C(=O)NC(=O)C(C)(C1=O)C2=CCCCC2,Hexobarbital,2122.94,?M/L,-2.673,log(mol/L),-