SMILES,NAME,Water solubility,UNIT {Water solubility},Solubility_log(mol/L),UNIT {Water solubility}.1,CASRN
C1=CC=C2C(=C1)C=3C=CC=CC3C=4C=CC=CC24,triphenylene,-6.726,log(mol/L),-6.726,log(mol/L),-
C(C1=C(NC2=C(C(=CC=C2)C)C)C=CC=C1)(=O)O,mefenamic_acid,0.183299,?M/L,-6.737,log(mol/L),-
C=12C=CC=CC1C=3C=CC=CC3C4=C2C=CC=C4,triphenylene,-6.74,log(mol/L),-6.74,log(mol/L),217-59-4
C12=CC=CC=C1C3=C(C4=C2C=CC=C4)C=CC=C3,triphenylene,-6.74,log(mol/L),-6.74,log(mol/L),-
CN(C)CCC=C1C2=CC=CC=C2SC3=CC=C(C=C13)Cl,chlorprothixene_form_I,0.177964,?M/L,-6.75,log(mol/L),-
BrC1=CC(Br)=CC=C1OC2=CC=C(Br)C=C2,"2,4,4'-triBDE",-6.76,log(mol/L),-6.76,log(mol/L),-
BrC1=CC(Br)=CC=C1OC2=CC=C(Br)C=C2,"BDE-028; 2,4,4'-tribromodiphenyl ether",7.0E-5 +- 1.0E-5,g/L,-6.764,log(mol/L),41318-75-6
OC(=O)C1C(C2=C(C1C3=CC=4OCOC4C=C3)C=CC(OCCC)=C2)C5=C(OCC(O)=O)C=C(OC)C=C5,SB209670,-6.77,log(mol/L),-6.77,log(mol/L),-
CCN(CC1=C(F)C=CC=C1Cl)C2=C(C=C(C=C2N(=O)=O)C(F)(F)F)N(=O)=O,Flumetralin,-6.78,log(mol/L),-6.78,log(mol/L),-
N(=O)(=O)C1=C(C(N(=O)=O)=C2C(C(CC2(C)C)(C)C)=C1)C,FRA057; Musk moskene,0.046,mg/L,-6.782,log(mol/L),116-66-5
ClC1=C(C=C(C=C1)Cl)C2=C(C=CC=C2Cl)Cl,"2,2',5,6'-pcb",-6.8,log(mol/L),-6.8,log(mol/L),41464-41-9
ClC1=CC=C(C=C1C2=C(Cl)C=CC=C2Cl)Cl,"2,2?,5,6?-pcb",-6.8,log(mol/L),-6.8,log(mol/L),41464-41-9
ClC12C3(C4(C5(C(C1(C(C35Cl)(Cl)Cl)Cl)(C2(C4(Cl)Cl)Cl)Cl)Cl)Cl)Cl,Mirex,-6.8,log(mol/L),-6.8,log(mol/L),-
ClC12C3(Cl)C4(Cl)C5(Cl)C(Cl)(C1(Cl)C4(Cl)Cl)C2(Cl)C(Cl)(Cl)C35Cl,Mirex,-6.8,log(mol/L),-6.8,log(mol/L),-
ClC1=C(C(=CC=C1)Cl)C2=C(C=CC(=C2)Cl)Cl,"2,2?,5,6?-PCB",-6.8,log(mol/L),-6.8,log(mol/L),-
CCCCCCCCCCCCCCCC(O)=O,palmitic acid,-6.81,log(mol/L),-6.81,log(mol/L),57-10-3
ClC12C(Cl)(Cl)C(C(=C1Cl)Cl)(Cl)C3C(Cl)C(Cl)CC32,chlordane,-6.86,log(mol/L),-6.86,log(mol/L),57-74-9
ClC1CC2C(C1Cl)C3(Cl)C(=C(Cl)C2(Cl)C3(Cl)Cl)Cl,chlordane,-6.86,log(mol/L),-6.86,log(mol/L),-
ClC12C3C(C(C1(Cl)Cl)(C(=C2Cl)Cl)Cl)CC(C3Cl)Cl,chlordane,-6.86,log(mol/L),-6.86,log(mol/L),-
CC(C)C(C(=O)OC(C#N)C1=CC=CC(OC2=CC=CC=C2)=C1)C3=CC=C(OC(F)F)C=C3,Flucythrinate,-6.876,log(mol/L),-6.876,log(mol/L),-
CCC1=CC=2C=C3C=CC=CC3=CC2C=C1,2-ethylanthracene,-6.89,log(mol/L),-6.89,log(mol/L),52251-71-5
ClC(Cl)(Cl)C(C1=CC=C(OC)C=C1)C2=CC=C(OC)C=C2,methoxychlor,-6.89,log(mol/L),-6.89,log(mol/L),72-43-5
COC1=CC=C(C=C1)C(C2=CC=C(OC)C=C2)C(Cl)(Cl)Cl,methoxychlor,-6.89,log(mol/L),-6.89,log(mol/L),-
C(C)C1=CC2=C(C=C3C(=C2)C=CC=C3)C=C1,2-ethylanthracene,-6.89,log(mol/L),-6.89,log(mol/L),-
ClC(Cl)=C(C1=CC=C(Cl)C=C1)C2=CC=C(Cl)C=C2,"p,p?-dde",-6.9,log(mol/L),-6.9,log(mol/L),72-55-9
ClC(Cl)=C(C1=CC=C(Cl)C=C1)C2=CC=C(Cl)C=C2,DDE,-6.9,log(mol/L),-6.9,log(mol/L),-
ClC(Cl)=C(C1=CC=C(Cl)C=C1)C2=CC=C(Cl)C=C2,"P,P'-DDE",0.04,mg/L,-6.9,log(mol/L),72-55-9
ClC(Cl)=C(C1=CC=C(Cl)C=C1)C2=CC=C(Cl)C=C2,"P,P'-DDE",-6.9,log(mol/L),-6.9,log(mol/L),72-55-9
ClC(Cl)=C(C1=CC=C(Cl)C=C1)C2=CC=C(Cl)C=C2,"P,P'-DDE",-6.91,log(mol/L),-6.91,log(mol/L),-
O=C(OCC(CC)CCCC)C1=CC=CC=C1C(OCC(CC)CCCC)=O,di-(2-ethylhexyl)-phthalate,-6.96,log(mol/L),-6.96,log(mol/L),117-81-7
CC1=CC=2C=C3C=CC=CC3=CC2C=C1,2-methylanthracene,-6.96,log(mol/L),-6.96,log(mol/L),613-12-7
CC1=CC2=C(C=C3C(=C2)C=CC=C3)C=C1,2-methylanthracene,-6.96,log(mol/L),-6.96,log(mol/L),-
CC1=CC=C2C=C3C=CC=CC3=CC2=C1,2-methylanthracene,-6.96,log(mol/L),-6.96,log(mol/L),-
CCCCC(CC)COC(=O)C1=CC=CC=C1C(=O)OCC(CC)CCCC,Di(2-ethylhexyl)-phthalate,-6.96,log(mol/L),-6.96,log(mol/L),-
BrC1=CC(Br)=C(Br)C=C1Br,"1,2,4,5-Tetrabromobenzene",-6.98,log(mol/L),-6.98,log(mol/L),-
BrC1=C(C=C(C(=C1)Br)Br)Br,"1,2,4,5-Tetrabromobenzene",-6.98,log(mol/L),-6.98,log(mol/L),-
C1(=C(C=C(C(Br)=C1)Br)Br)Br,"1,2,4,5-Tetrabromobenzene",0.04,mg/L,-6.993,log(mol/L),636-28-2
OC1CCC2(C(=CCC3C4C(C(CC4)C(CCCC(C)C)C)(CCC23)C)C1)C,Cholesterol,-7.0,log(mol/L),-7.0,log(mol/L),-
ClC1=CC=C(Cl)C=C1C2=CC(Cl)=CC=C2Cl,"2,2?,5,5?-pcb",-7.0,log(mol/L),-7.0,log(mol/L),35693-99-3
ClC1=C(C=C(C=C1)Cl)C2=C(C=CC(=C2)Cl)Cl,"2,2?,5,5?-PCB",-7.0,log(mol/L),-7.0,log(mol/L),-
CCCCCCCCCCCCCCCCO,1-Hexadecanol,-7.0,log(mol/L),-7.0,log(mol/L),-
ClC1=CC=C(Cl)C=C1C2=CC(Cl)=CC=C2Cl,"2,2',5,5'-pcb",-7.0,log(mol/L),-7.0,log(mol/L),35693-99-3
CC1=C(C)C=2C=3C=CC=CC3C=CC2C=4C=CC=CC14,"5,6-Dimethylchrysene",-7.01,log(mol/L),-7.01,log(mol/L),-
CC1=C(C2=C(C3=C1C4=C(C=C3)C=CC=C4)C=CC=C2)C,"5,6-Dimethylchrysene",-7.01,log(mol/L),-7.01,log(mol/L),-
C1=CC(=C(C=C1Br)Br)OC2=C(C=C(C=C2Br)Br)Br,"BDE-100; 2,2',4,4',6-pentabromodiphenyl ether",9.58E-5,mmol/L,-7.019,log(mol/L),189084-64-8
CC=1C=2C=3C=CC=CC3C=CC2C(C)=C4C1C=CC=C4,"7,12-dimethylbenz(a)anthracene",-7.02,log(mol/L),-7.02,log(mol/L),57-97-6
CC1=C2C3=C(C=CC2=C(C4=C1C=CC=C4)C)C=CC=C3,"7,12-dimethylbenz(a)anthracene",-7.02,log(mol/L),-7.02,log(mol/L),-
CC=1C=2C=CC=CC2C(C)=C3C=CC=4C=CC=CC4C13,"7,12-dimethylbenz(a)anthracene",-7.02,log(mol/L),-7.02,log(mol/L),-
ClC1=C(C=CC(Cl)=C1Cl)C2=C(Cl)C(Cl)=CC=C2,"2,2?,3,3?,4-pcb",-7.05,log(mol/L),-7.05,log(mol/L),52663-62-4
ClC1=C(C(=CC=C1Cl)C2=CC(=C(C=C2)Cl)Cl)Cl,"2,2?,3,3?,4-PCB",-7.05,log(mol/L),-7.05,log(mol/L),-
ClC1=C(C(=CC=C1Cl)C2=C(C(=CC=C2)Cl)Cl)Cl,"1,2,3-trichloro-4-(2,3-dichlorophenyl)benzene",-7.05,log(mol/L),-7.05,log(mol/L),-
ClC1=C(C=CC(=C1Cl)C2=CC=CC(=C2Cl)Cl)Cl,"2,2',3,3',4-pcb",-7.05,log(mol/L),-7.05,log(mol/L),52663-62-4
CN(C)C(=O)C(CCN1CCC(CC1)(C2=CC=C(C=C2)Cl)O)(C3=CC=CC=C3)C4=CC=CC=C4,loperamide,0.08427,?M/L,-7.074,log(mol/L),-
C1=CC=C(C=C1)C2=CC=C(C=C2)C3=CC=CC=C3,p-terphenyl,-7.11,log(mol/L),-7.11,log(mol/L),-
C1(C2=CC=C(C3=CC=CC=C3)C=C2)=CC=CC=C1,p-terphenyl,-7.11,log(mol/L),-7.11,log(mol/L),92-94-4
C1(=CC=C(C=C1)C2=CC=CC=C2)C3=CC=CC=C3,p-terphenyl,-7.11,log(mol/L),-7.11,log(mol/L),-
ClC1=CC=C(C=C1)C(C2=CC=C(Cl)C=C2)C(Cl)(Cl)Cl,DDT,-7.15,log(mol/L),-7.15,log(mol/L),-
C1=CC(=C(C=C1Br)Br)OC2=C(C=C(C=C2Br)Br)Br,"BDE-100; 2,2',4,4',6-pentabromodiphenyl ether",4.0E-5 +- 1.0E-5,g/L,-7.15,log(mol/L),189084-64-8
C1=CC(=C(C=C1Br)Br)OC2=C(C=C(C=C2Br)Br)Br,"2,2',4,4',6-pentaBDE",-7.15,log(mol/L),-7.15,log(mol/L),-
ClC1=C(Cl)C(Cl)=C(Cl)C=C1C2=CC=CC=C2,"2,3,4,5-pcb",-7.16,log(mol/L),-7.16,log(mol/L),33284-53-6
ClC1=C(C(=CC(=C1Cl)C2=CC=CC=C2)Cl)Cl,"2,3,4,5-pcb",-7.16,log(mol/L),-7.16,log(mol/L),-
C1=CC(=C(C=C1Br)Br)OC2=CC(=C(C=C2Br)Br)Br,"2,2',4,4',5-Pentabromodiphenyl ether; BDE-099",6.88E-5,mmol/L,-7.162,log(mol/L),60348-60-9
ClC(Cl)C(C1=CC=C(Cl)C=C1)C2=CC=C(Cl)C=C2,"P,P'-DDD",-7.2,log(mol/L),-7.2,log(mol/L),72-54-8
ClC(Cl)C(C1=CC=C(Cl)C=C1)C2=CC=C(Cl)C=C2,DDD,-7.2,log(mol/L),-7.2,log(mol/L),-
ClC(Cl)C(C1=CC=C(Cl)C=C1)C2=CC=C(Cl)C=C2,"p,p?-ddd",-7.2,log(mol/L),-7.2,log(mol/L),72-54-8
ClC1=C(C(=CC(=C1Cl)C2=CC=CC=C2Cl)Cl)Cl,"2,2',3,4,5-PCB",-7.21,log(mol/L),-7.21,log(mol/L),55312-69-1
ClC1=C(Cl)C(Cl)=C(C=C1C2=C(Cl)C=CC=C2)Cl,"2,2?,3,4,5-pcb",-7.21,log(mol/L),-7.21,log(mol/L),55312-69-1
ClC(Cl)C(C1=CC=C(Cl)C=C1)C2=CC=C(Cl)C=C2,"P,P'-DDD",-7.21,log(mol/L),-7.21,log(mol/L),-
ClC1=C(C(=CC(=C1Cl)C2=C(C=CC=C2)Cl)Cl)Cl,"2,2?,3,4,5-PCB",-7.21,log(mol/L),-7.21,log(mol/L),-
ClC1=CC(Cl)=C(C=C1Cl)C2=CC=CC(Cl)=C2Cl,"2,2',3,4,5-PCB",-7.21,log(mol/L),-7.21,log(mol/L),-
FC1=CC=CC(F)=C1C(=O)NC(=O)NC2=CC(Cl)=C(OC(F)(F)C(F)F)C(Cl)=C2,Hexaflumuron,0.027,mg/L,-7.232,log(mol/L),86479-06-3
ClC1=CC=C(Cl)C=C1C2=CC=C(Cl)C(Cl)=C2,"2,3?,4?,5-pcb",-7.25,log(mol/L),-7.25,log(mol/L),32598-11-1
ClC1=CC=C(Cl)C=C1C2=CC=C(Cl)C(Cl)=C2,"2,3',4',5-PCB",-7.25,log(mol/L),-7.25,log(mol/L),32598-11-1
ClC1=CC=C(Cl)C(=C1)C2=CC=C(Cl)C(Cl)=C2,"2,3',4',5-PCB",-7.25,log(mol/L),-7.25,log(mol/L),-
ClC1=C(C=CC(=C1)C2=C(C=CC(=C2)Cl)Cl)Cl,"2,3?,4?,5-PCB",-7.25,log(mol/L),-7.25,log(mol/L),-
CCCCCCCCCCCCCCCCO,cetyl alcohol,-7.26,log(mol/L),-7.26,log(mol/L),36653-82-4
ClC1=C(Cl)C(Cl)(C(=C1Cl)Cl)C2(Cl)C(=C(Cl)C(=C2Cl)Cl)Cl,Dienochlor,-7.278,log(mol/L),-7.278,log(mol/L),-
ClC1=CC=CC(=C1Cl)C2=CC=CC(Cl)=C2Cl,"2,2',3,3'-PCB",-7.28,log(mol/L),-7.28,log(mol/L),-
ClC1=C(Cl)C=CC=C1C2=C(Cl)C(Cl)=CC=C2,"2,2?,3,3?-pcb",-7.28,log(mol/L),-7.28,log(mol/L),38444-93-8
ClC1=C(Cl)C=CC=C1C2=C(Cl)C(Cl)=CC=C2,"2,2',3,3'-PCB",-7.28,log(mol/L),-7.28,log(mol/L),38444-93-8
FC1=CC=CC(F)=C1C(=O)NC(=O)NC2=CC(Cl)=C(F)C(Cl)=C2F,TEFLUBENZURON,-7.28,log(mol/L),-7.28,log(mol/L),-
C1C(O)CCC2(C)CC3CCC4(C)C5(C)CC6OCC(C)CC6OC5CC4C3C=C21,diosgenin,-7.32,log(mol/L),-7.32,log(mol/L),-
ClC1=C(C(Cl)=CC(Cl)=C1)C2=C(Cl)C=CC=C2Cl,"2,2,4,6,6?-pcb",-7.32,log(mol/L),-7.32,log(mol/L),56558-16-8
ClC1=C(C(=CC(=C1)Cl)Cl)C2=C(C=CC=C2Cl)Cl,"2,2,4,6,6?-PCB",-7.32,log(mol/L),-7.32,log(mol/L),-
CC1C2(OCC(C)CC2)OC3CC4C5CC=C6CC(O)CCC6(C)C5CCC4(C)C31,diosgenin,-7.32,log(mol/L),-7.32,log(mol/L),512-04-9
ClC1=C(C(=CC(=C1)Cl)Cl)C2=C(C=CC=C2Cl)Cl,"2,2,4,6,6'-PCB",-7.32,log(mol/L),-7.32,log(mol/L),56558-16-8
ClC1=CC(Cl)=C(C(Cl)=C1)C2=C(Cl)C=CC=C2Cl,"2,2,4,6,6'-PCB",-7.32,log(mol/L),-7.32,log(mol/L),-
C(Cl)(C(F)(F)F)=CC1C(C)(C)C1C(=O)OCC2=C(F)C(F)=C(C)C(F)=C2F,Tetrafluthrin,0.02,mg/L,-7.321,log(mol/L),79538-32-2
CC1=C(F)C(F)=C(COC(=O)C2C(C=C(Cl)C(F)(F)F)C2(C)C)C(F)=C1F,Tetrafluthrin,-7.321,log(mol/L),-7.321,log(mol/L),-
ClC12C3C(C4C=CC3C4)C(C1(Cl)Cl)(Cl)C(Cl)=C2Cl,aldrin,-7.33,log(mol/L),-7.33,log(mol/L),309-00-2
ClC12C3C(C(Cl)(C1(Cl)Cl)C(Cl)=C2Cl)C4CC3C=C4,aldrin,-7.33,log(mol/L),-7.33,log(mol/L),-
CC1(C)C(C=C(Cl)Cl)C1C(=O)OC(C#N)C2=CC=C(F)C(OC3=CC=CC=C3)=C2,Cyfluthrin,-7.337,log(mol/L),-7.337,log(mol/L),-
ClC1=CC(Cl)=C(Cl)C=C1C2=CC=C(Cl)C(Cl)=C2,"2,3',4,4',5-PCB",-7.39,log(mol/L),-7.39,log(mol/L),31508-00-6
ClC1=C(C=C(C(=C1)Cl)C2=CC(=C(C=C2)Cl)Cl)Cl,"2,3?,4,4?,5-PCB",-7.39,log(mol/L),-7.39,log(mol/L),-
ClC1=CC=C(C(Cl)=C1)C2=CC(Cl)=C(Cl)C(Cl)=C2Cl,"2,3',4,4',5-PCB",-7.39,log(mol/L),-7.39,log(mol/L),-
ClC1=CC=CC(Cl)=C1C2=C(Cl)C=CC=C2Cl,"2,2',6,6'-PCB",-7.39,log(mol/L),-7.39,log(mol/L),-
ClC1=C(C(=CC(=C1Cl)C2=C(C=C(C=C2)Cl)Cl)Cl)Cl,"2,3',4,4',5-PCB",-7.39,log(mol/L),-7.39,log(mol/L),-
ClC1=CC(Cl)=C(Cl)C=C1C2=CC=C(Cl)C(Cl)=C2,"2,3?,4,4?,5-pcb",-7.39,log(mol/L),-7.39,log(mol/L),31508-00-6
ClC1=CC=CC(Cl)=C1C2=C(Cl)C=CC=C2Cl,"2,2?,6,6?-pcb",-7.39,log(mol/L),-7.39,log(mol/L),15968-05-5
ClC1=C(C(=CC=C1)Cl)C2=C(C=CC=C2Cl)Cl,"2,2?,6,6?-PCB",-7.39,log(mol/L),-7.39,log(mol/L),-
ClC1=CC=CC(Cl)=C1C2=C(Cl)C=CC=C2Cl,"2,2',6,6'-PCB",-7.39,log(mol/L),-7.39,log(mol/L),15968-05-5
C=12C=CC3=C(C1NC=4C=5C=CC=CC5C=CC24)C=CC=C3,"13h-dibenzo(a,i)carbazole",-7.42,log(mol/L),-7.42,log(mol/L),239-64-5
ClC1=C(C2=CC(Cl)=CC=C2Cl)C(Cl)=C(Cl)C=C1Cl,"2,2',3,5,5',6-PCB",-7.42,log(mol/L),-7.42,log(mol/L),52663-63-5
ClC1=C(C2=CC(Cl)=CC=C2Cl)C(Cl)=C(Cl)C=C1Cl,"2,2?,3,5,5?,6-pcb",-7.42,log(mol/L),-7.42,log(mol/L),52663-63-5
ClC1=C(C=C(C(=C1C2=C(C=CC(=C2)Cl)Cl)Cl)Cl)Cl,"2,2?,3,5,5?,6-PCB",-7.42,log(mol/L),-7.42,log(mol/L),-
ClC1=CC=C(Cl)C(=C1)C2=C(Cl)C(Cl)=CC(Cl)=C2Cl,"2,2',3,5,5',6-PCB",-7.42,log(mol/L),-7.42,log(mol/L),-
ClC1=C(C=CC(=C1C2=C(C=C(C=C2)Cl)Cl)Cl)Cl,"2,2',3,4,6-PCB",-7.43,log(mol/L),-7.43,log(mol/L),-
ClC1=C(C(=CC(=C1Cl)Cl)Cl)C2=CC=CC=C2Cl,"2,2',3,4,6-PCB",-7.43,log(mol/L),-7.43,log(mol/L),55215-17-3
ClC1=C(C(Cl)=CC(Cl)=C1Cl)C2=C(Cl)C=CC=C2,"2,2?,3,4,6-pcb",-7.43,log(mol/L),-7.43,log(mol/L),55215-17-3
ClC1=CC=C(C(Cl)=C1)C2=C(Cl)C=CC(Cl)=C2Cl,"2,2',3,4,6-PCB",-7.43,log(mol/L),-7.43,log(mol/L),-
ClC1=C(C(=C(C=C1Cl)Cl)C2=C(C=CC=C2)Cl)Cl,"2,2?,3,4,6-PCB",-7.43,log(mol/L),-7.43,log(mol/L),-
BrC1=CC=C(OC2=CC=C(Br)C=C2Br)C=C1Br,"2,3',4,4'-TetraBDE",-7.43,log(mol/L),-7.43,log(mol/L),-
BrC1=CC=C(OC2=CC=C(Br)C=C2Br)C=C1Br,"BDE-066; 2,3',4,4'-tetrabromodiphenyl ether",1.8E-5 +- 3.0E-6,g/L,-7.431,log(mol/L),189084-61-5
C1=CC(=C(C=C1Br)Br)OC2=C(C=C(C=C2)Br)Br,"2,2',4,4'-Tetrabromodiphenyl ether; BDE-047",0.0153,mg/L,-7.502,log(mol/L),5436-43-1
C1=CC(=C(C=C1Br)Br)OC2=C(C=C(C=C2)Br)Br,"2,2',4,4'-Tetrabromodiphenyl ether; BDE-047",1.5E-5 +- 2.0E-6,g/L,-7.51,log(mol/L),5436-43-1
C1=CC(=C(C=C1Br)Br)OC2=C(C=C(C=C2)Br)Br,"2,2',4,4'-tetraBDE",-7.51,log(mol/L),-7.51,log(mol/L),-
C1=CC(=C(C=C1Br)Br)OC2=C(C=C(C=C2)Br)Br,"2,2',4,4'-Tetrabromodiphenyl ether; BDE-047",3.04E-8,mol/L,-7.517,log(mol/L),5436-43-1
C1=C(C(=CC(=C1Br)Br)Br)OC2=CC(=C(C=C2Br)Br)Br,"BDE-153; 2,2',4,4',5,5'-Hexabromodiphenyl ether",2.59E-5,mmol/L,-7.587,log(mol/L),68631-49-2
O=C(C1C2(C(C3C(C4(C(CC3)=CC(=O)C=C4)C)=CC2)CC1C)C)CN5CCN(CC5)C6=NC(N7CCCC7)=NC(N8CCCC8)=C6,Tirilazad,-7.59,log(mol/L),-7.59,log(mol/L),-
OC(=O)C(F)(F)C(F)(F)C(F)(F)C(F)(F)C(F)(F)C(F)(F)C(F)(F)F,-,-2.02,log(mg/L),-7.637,log(mol/L),335-67-1
C1=CC(=C(C=C1Br)Br)OC2=C(C=C(C=C2)Br)Br,"2,2',4,4'-Tetrabromodiphenyl ether; BDE-047",0.0109,mg/L,-7.649,log(mol/L),5436-43-1
ClC1=C(C2=CC=C(Cl)C(Cl)=C2)C(Cl)=C(Cl)C(Cl)=C1,"2,3,3',4,4'6-PCB",-7.66,log(mol/L),-7.66,log(mol/L),74472-42-7
ClC1=C(C2=CC=C(Cl)C(Cl)=C2)C(Cl)=C(Cl)C(Cl)=C1,"2,3,3?,4,4?6-pcb",-7.66,log(mol/L),-7.66,log(mol/L),74472-42-7
ClC1=CC=C(C(Cl)=C1Cl)C2=C(Cl)C=C(Cl)C(Cl)=C2Cl,"2,3,3',4,4'6-PCB",-7.66,log(mol/L),-7.66,log(mol/L),-
ClC1=C(C(=C(C=C1Cl)Cl)C2=CC(=C(C=C2)Cl)Cl)Cl,"2,3,3?,4,4?6-PCB",-7.66,log(mol/L),-7.66,log(mol/L),-
C1(=C(C(=C(C(Cl)=C1Cl)Cl)Cl)Cl)Cl,hexachlorobenzene,0.0062,mg/L,-7.662,log(mol/L),118-74-1
ClC1=CC=C(Cl)C(C2=CC(Cl)=C(Cl)C(Cl)=C2Cl)=C1,"2,2',3,4,5,5'-PCB",-7.68,log(mol/L),-7.68,log(mol/L),-
ClC1=C(C(=CC(=C1Cl)C2=C(C=CC(=C2)Cl)Cl)Cl)Cl,"2,2?,3,4,5,5?-PCB",-7.68,log(mol/L),-7.68,log(mol/L),-
ClC1=CC=C(Cl)C(C2=CC(Cl)=C(Cl)C(Cl)=C2Cl)=C1,"2,2?,3,4,5,5?-pcb",-7.68,log(mol/L),-7.68,log(mol/L),52712-04-6
ClC1=CC=C(Cl)C(C2=CC(Cl)=C(Cl)C(Cl)=C2Cl)=C1,"2,2',3,4,5,5'-PCB",-7.68,log(mol/L),-7.68,log(mol/L),52712-04-6
OCCC(C(C(C(C(C(F)(C(F)(C(F)(C(F)(C(F)(F)F)F)F)F)F)(F)F)(F)F)(F)F)(F)F)(F)F,-,-1.96,log(mg/L),-7.711,log(mol/L),865-86-1
BrC1=CC(Br)=C(C(Br)=C1)C2=C(Br)C=C(Br)C=C2Br,HEXABROMOBIPHENYL,0.011,mg/L,-7.756,log(mol/L),36355-01-8
C(F)(F)(F)C1=CC(N(=O)=O)=CC(N(=O)=O)=C1N(C)C2=C(Br)C=C(Br)C=C2Br,BROMETHALIN,0.01,mg/L,-7.762,log(mol/L),63333-35-7
C1=CC(=C(C=C1Br)Br)OC2=CC(=C(C=C2Br)Br)Br,"2,2',4,4',5-Pentabromodiphenyl ether; BDE-099",9.4E-6 +- 8.0E-7,g/L,-7.779,log(mol/L),60348-60-9
C1=CC(=C(C=C1Br)Br)OC2=CC(=C(C=C2Br)Br)Br,"2,2',4,4',5-pentaBDE",-7.78,log(mol/L),-7.78,log(mol/L),-
C1=CC=C2C(=C1)C=3C=CC=C4C=CC=5C=CC=C2C5C43,benzo(e)pyrene,-7.8,log(mol/L),-7.8,log(mol/L),-
C12=C3C=CC=C1C4=C(C5=CC=CC(=C25)C=C3)C=CC=C4,benzo(e)pyrene,-7.8,log(mol/L),-7.8,log(mol/L),-
C=12C=3C=4C5=C(C=CC=C5)C1C=CC=C2C=CC3C=CC4,benzo(e)pyrene,-7.8,log(mol/L),-7.8,log(mol/L),192-97-2
ClC1=CC=C(C(Cl)=C1)C2=CC=C(Cl)C(Cl)=C2Cl,"2,3',4,4'-PCB",-7.8,log(mol/L),-7.8,log(mol/L),-
ClC1=CC=C(C2=CC=C(C(Cl)=C2)Cl)C(Cl)=C1,"2,3',4,4'-PCB",-7.8,log(mol/L),-7.8,log(mol/L),32598-10-0
ClC1=C(C=CC(=C1)C2=C(C=C(C=C2)Cl)Cl)Cl,"2,3?,4,4?-PCB",-7.8,log(mol/L),-7.8,log(mol/L),-
ClC1=C(C(=CC=C1Cl)C2=C(C=C(C=C2)Cl)Cl)Cl,"2,3',4,4'-PCB",-7.8,log(mol/L),-7.8,log(mol/L),-
ClC1=CC=C(C2=CC=C(C(Cl)=C2)Cl)C(Cl)=C1,"2,3?,4,4?-pcb",-7.8,log(mol/L),-7.8,log(mol/L),32598-10-0
C1(=CC=C(C=C1)Cl)C(C2=CC=C(C=C2)Cl)C(Cl)(Cl)Cl,"p,p'-DDT",0.0055,mg/L,-7.809,log(mol/L),50-29-3
ClC1=CC=C(C=C1Cl)C2=CC(Cl)=C(Cl)C(Cl)=C2Cl,"2,3,3',4,4',5-PCB",-7.82,log(mol/L),-7.82,log(mol/L),-
ClC1=C(C(=CC(=C1Cl)C2=CC(=C(C=C2)Cl)Cl)Cl)Cl,"2,3,3?,4,4?,5-PCB",-7.82,log(mol/L),-7.82,log(mol/L),-
ClC1=C(C(=CC(=C1Cl)C2=CC(=C(C=C2)Cl)Cl)Cl)Cl,"2,3,3',4,4',5-PCB",-7.82,log(mol/L),-7.82,log(mol/L),38380-08-4
ClC1=C(Cl)C(Cl)=C(C=C1C2=CC=C(Cl)C(Cl)=C2)Cl,"2,3,3?,4,4?,5-pcb",-7.82,log(mol/L),-7.82,log(mol/L),38380-08-4
C1CC2=CC=CC3=C2C1=C4C=CC5=C(C4=C3)C=CC=C5,Cholanthrene,-7.85,log(mol/L),-7.85,log(mol/L),-
C1CC=2C=3C1=CC=CC3C=C4C2C=CC=5C=CC=CC54,Cholanthrene,-7.85,log(mol/L),-7.85,log(mol/L),-
C1=CC=C2C(=C1)C=CC3=C2C=CC=4C=5C=CC=CC5C=CC43,Picene,-7.87,log(mol/L),-7.87,log(mol/L),-
C12=CC=C3C(=C1C=CC4=C2C=CC5=C4C=CC=C5)C=CC=C3,Picene,-7.87,log(mol/L),-7.87,log(mol/L),-
BrC1C(Br)CCC(Br)C(Br)CCC(Br)C(Br)CC1,"1,2,5,6,9,10-HEXABROMOCYCLODODECANE",0.0086,mg/L,-7.873,log(mol/L),3194-55-6
ClC1=C(C=C(C(=C1)Cl)C2=C(C=CC(=C2)Cl)Cl)Cl,"2,2?,4,5,5?-PCB",-7.89,log(mol/L),-7.89,log(mol/L),-
ClC1=CC(C2=CC(Cl)=C(C=C2Cl)Cl)=C(Cl)C=C1,"2,2',4,5,5'-pcb",-7.89,log(mol/L),-7.89,log(mol/L),37680-73-2
ClC1=CC(C2=CC(Cl)=C(C=C2Cl)Cl)=C(Cl)C=C1,"2,2?,4,5,5?-pcb",-7.89,log(mol/L),-7.89,log(mol/L),37680-73-2
BrC1=CC=C(OC2=CC=C(Br)C(Br)=C2)C=C1Br,"BDE-077; 3,3',4,4'-tetrabromodiphenyl ether",6.0E-6 +- 1.0E-7,g/L,-7.908,log(mol/L),93703-48-1
ClC1=CC=C(Cl)C(C2=CC=C(Cl)C(Cl)=C2Cl)=C1,"2,2',3,4,5'-pcb",-7.91,log(mol/L),-7.91,log(mol/L),38380-02-8
ClC1=C(C(=CC=C1Cl)C2=C(C=CC(=C2)Cl)Cl)Cl,"2,2?,3,4,5?-PCB",-7.91,log(mol/L),-7.91,log(mol/L),-
ClC1=CC=C(Cl)C(C2=CC=C(Cl)C(Cl)=C2Cl)=C1,"2,2?,3,4,5?-pcb",-7.91,log(mol/L),-7.91,log(mol/L),38380-02-8
BrC1=CC=C(OC2=CC=C(Br)C(Br)=C2)C=C1Br,"3,3',4,4'-tetraBDE",-7.91,log(mol/L),-7.91,log(mol/L),-
CC1=CC=C2C=C3C(C=CC4=C3C=CC=C4)=C5C2=C1CC5,3-methylcholanthrene,-7.92,log(mol/L),-7.92,log(mol/L),56-49-5
ClC1=C(Cl)C(Cl)=C(C2=CC=CC=C2)C(Cl)=C1Cl,"2,3,4,5,6-pcb",-7.92,log(mol/L),-7.92,log(mol/L),-
ClC1=C(C2=CC(Cl)=C(Cl)C=C2Cl)C(Cl)=C(Cl)C(Cl)=C1,"2,2',3,4,4',5',6-PCB",-7.92,log(mol/L),-7.92,log(mol/L),52663-69-1
ClC1=C(C(=C(C=C1Cl)Cl)C2=C(C=C(C(=C2)Cl)Cl)Cl)Cl,"2,2?,3,4,4?,5?,6-PCB",-7.92,log(mol/L),-7.92,log(mol/L),-
ClC1=C(C(=C(C(=C1Cl)Cl)C2=CC=CC=C2)Cl)Cl,"2,3,4,5,6-pcb",-7.92,log(mol/L),-7.92,log(mol/L),-
ClC1=CC=C(C(Cl)=C1)C2=C(Cl)C(Cl)=C(Cl)C(Cl)=C2Cl,"2,2',3,4,4',5',6-PCB",-7.92,log(mol/L),-7.92,log(mol/L),-
ClC1=C(Cl)C(Cl)=C(Cl)C(Cl)=C1C2=CC=CC=C2,"2,3,4,5,6-pcb",-7.92,log(mol/L),-7.92,log(mol/L),18259-05-7
ClC1=C(C(=C(C(=C1Cl)Cl)C2=C(C=C(C=C2)Cl)Cl)Cl)Cl,"2,2',3,4,4',5',6-PCB",-7.92,log(mol/L),-7.92,log(mol/L),-
C1=CC(C)=CC2=C1C=3C=C4C=CC=C5CCC(=C45)C3C=C2,3-methylcholanthrene,-7.92,log(mol/L),-7.92,log(mol/L),-
C1CC2=C(C=CC3=C2C1=C4C=CC5=C(C4=C3)C=CC=C5)C,3-methylcholanthrene,-7.92,log(mol/L),-7.92,log(mol/L),-
ClC1=C(C2=CC(Cl)=C(Cl)C=C2Cl)C(Cl)=C(Cl)C(Cl)=C1,"2,2?,3,4,4?,5?,6-pcb",-7.92,log(mol/L),-7.92,log(mol/L),52663-69-1
C1CC2=CC=CC3=C2C1=C4C=CC5=C(C4=C3)C=CC(=C5)C,3-methylcholanthrene,-7.92,log(mol/L),-7.92,log(mol/L),-
CCCCCCCCCCCCCC,Tetradecane,-7.96,log(mol/L),-7.96,log(mol/L),-
BrC1=CC=C(OC2=CC=C(Br)C=C2Br)C(Br)=C1Br,"2,2',3,4,4'-pentaBDE",-7.97,log(mol/L),-7.97,log(mol/L),-
C1=CC(=C(C=C1Br)Br)OC2=C(C(=C(C=C2)Br)Br)Br,"2,2',3,4,4'-Pentabromodiphenyl ether; BDE-085",6.0E-6 +- 1.0E-7,g/L,-7.974,log(mol/L),182346-21-0
C1=CC=C2C3=C(C=CC2=C1)C=4C=CC=C5C=CC=C3C45,benzo(j)fluoranthene,-8.0,log(mol/L),-8.0,log(mol/L),-
C=12C=CC3=C(C=CC=C3)C1C=4C5=C(C=CC=C52)C=CC4,benzo(j)fluoranthene,-8.0,log(mol/L),-8.0,log(mol/L),205-82-3
C12=C3C=CC=C1C=CC=C2C4=C3C5=C(C=C4)C=CC=C5,benzo(j)fluoranthene,-8.0,log(mol/L),-8.0,log(mol/L),-
C(C(C(C(C(C(O)=O)(F)F)(F)F)(F)F)(F)F)(C(C(C(C(F)(F)F)(F)F)(F)F)(F)F)(F)F,-,-2.29,log(mg/L),-8.001,log(mol/L),335-76-2
ClC1=C(NC(C(C)C)C(OC(C2=CC(OC3=CC=CC=C3)=CC=C2)C#N)=O)C=CC(=C1)C(F)(F)F,Fluvalinate,-8.003,log(mol/L),-8.003,log(mol/L),-
ClC1=CC=C(C2=CC=C(C(Cl)=C2Cl)Cl)C(Cl)=C1Cl,"2,2?,3,3?,4,4?-pcb",-8.01,log(mol/L),-8.01,log(mol/L),38380-07-3
ClC1=CC=C(C(Cl)=C1Cl)C2=CC=C(Cl)C(Cl)=C2Cl,"2,2',3,3',4,4'-PCB",-8.01,log(mol/L),-8.01,log(mol/L),-
ClC1=CC=C(C2=CC=C(C(Cl)=C2Cl)Cl)C(Cl)=C1Cl,"2,2',3,3',4,4'-PCB",-8.01,log(mol/L),-8.01,log(mol/L),38380-07-3
ClC1=C(C(=CC=C1Cl)C2=C(C(=C(C=C2)Cl)Cl)Cl)Cl,"2,2?,3,3?,4,4?-PCB",-8.01,log(mol/L),-8.01,log(mol/L),-
CC1(C)C(C=C(Cl)Cl)C1C(=O)OC(C#N)C2=CC=CC(OC3=CC=CC=C3)=C2,Cypermethrin,-8.017,log(mol/L),-8.017,log(mol/L),-
C1C2=CC=CC=C2C3=CC=4C=CC=CC4C=C13,benzo(b)fluorene,-8.04,log(mol/L),-8.04,log(mol/L),-
C1C2=C(C=C3C(=C2)C=CC=C3)C4=C1C=CC=C4,benzo(b)fluorene,-8.04,log(mol/L),-8.04,log(mol/L),-
C12=CC=3C=CC=CC3C=C1CC4=C2C=CC=C4,benzo(b)fluorene,-8.04,log(mol/L),-8.04,log(mol/L),243-17-4
C1=CC=C2C(=C1)C=CC=3C=4C=CC=CC4C=CC23,Chrysene,-8.057,log(mol/L),-8.057,log(mol/L),-
C12=C(C=CC3=C1C=CC4=C3C=CC=C4)C=CC=C2,Chrysene,-8.06,log(mol/L),-8.06,log(mol/L),218-01-9
C12=CC=C3C(=C1C=CC4=C2C=CC=C4)C=CC=C3,Chrysene,-8.06,log(mol/L),-8.06,log(mol/L),-
ClC1=CC=C(C(C2=CC=C(Cl)C=C2)C(Cl)(Cl)Cl)C=C1,"p,p'-DDT",-8.08,log(mol/L),-8.08,log(mol/L),50-29-3
ClC1=CC=C(C(C2=CC=C(Cl)C=C2)C(Cl)(Cl)Cl)C=C1,"p,p?-ddt",-8.08,log(mol/L),-8.08,log(mol/L),50-29-3
C1=CC(=C(C=C1Br)Br)OC2=CC(=C(C=C2Br)Br)Br,"2,2',4,4',5-Pentabromodiphenyl ether; BDE-099",7.74E-9,mol/L,-8.111,log(mol/L),60348-60-9
CCCCCCCCCCCCCCCCCCCC,Eicosane,-8.17,log(mol/L),-8.17,log(mol/L),-
CCCCCCCCCCCCCCCCCCCC,Eicosane,-8.172,log(mol/L),-8.172,log(mol/L),-