SMILES,NAME,Water solubility,UNIT {Water solubility},Solubility_log(mol/L),UNIT {Water solubility}.1,CASRN,MolW(Da),NumHAcceptors,NumHDonors,LogP,Lipinski_rule,Solubility(mol/L)
BrC1CCCCC1,bromocyclohexane,-2.3,log(mol/L),-2.3,log(mol/L),-,163.05799999999996,0,0,2.7140000000000004,1,0.005011872336272725
Nc1ccc(Cc2ccc(N)cc2)cc1,bis-(p-aminophenyl)-methane,-2.3,log(mol/L),-2.3,log(mol/L),101-77-9,198.269,2,2,2.4418000000000006,1,0.005011872336272725
CCOP(=S)(OCC)Oc1ccc(S(C)=O)cc1,fensulfothion,-2.3,log(mol/L),-2.3,log(mol/L),-,308.36100000000005,5,0,3.1003000000000016,1,0.005011872336272725
ClC(Cl)(Cl)Cl,Tetrachloromethane,-2.31,log(mol/L),-2.31,log(mol/L),56-23-5,153.823,0,0,2.5529,1,0.004897788193684461
CCCCCC(=O)OCC,ethyl capronate,-2.31,log(mol/L),-2.31,log(mol/L),123-66-0,144.21399999999997,2,0,2.1298000000000004,1,0.004897788193684461
ClC(Cl)(Cl)Cl,Tetrachloromethane,-2.31,log(mol/L),-2.31,log(mol/L),-,153.823,0,0,2.5529,1,0.004897788193684461
Fc1cc(F)c(F)c(F)c1,"1,2,3,5-tetrafluorobenzene",-2.31,log(mol/L),-2.31,log(mol/L),2367-82-0,150.074,0,0,2.2430000000000003,1,0.004897788193684461
CCOC(=O)c1ccc(N)cc1,Benzocaine,-2.32,log(mol/L),-2.32,log(mol/L),94-09-7,165.19199999999998,3,1,1.4455,1,0.004786300923226385
Nc1ccc(S(=O)(=O)Nc2ccnn2-c2ccccc2)cc1,sulfaphenazole,-2.32,log(mol/L),-2.32,log(mol/L),526-08-9,314.37000000000006,5,2,2.2553,1,0.004786300923226385
CCOC(=O)c1ccccc1,ethyl benzoate,-2.32,log(mol/L),-2.32,log(mol/L),-,150.177,2,0,1.8633,1,0.004786300923226385
CC1(C)C2CCC1(C)C(O)C2,borneol,-2.32,log(mol/L),-2.32,log(mol/L),-,154.253,1,1,2.1935000000000002,1,0.004786300923226385
CCOC(=O)c1ccc(N)cc1,Benzocaine,-2.32,log(mol/L),-2.32,log(mol/L),-,165.19199999999998,3,1,1.4455,1,0.004786300923226385
CCOC(=O)c1ccccc1,ethyl benzoate,-2.32,log(mol/L),-2.32,log(mol/L),93-89-0,150.177,2,0,1.8633,1,0.004786300923226385
CC1(C)C2CCC1(C)C(O)C2,borneol,-2.32,log(mol/L),-2.32,log(mol/L),507-70-0,154.253,1,1,2.1935000000000002,1,0.004786300923226385
CCC1(c2ccccc2)C(=O)NC(=O)NC1=O,Phenobarbital,-2.32,log(mol/L),-2.32,log(mol/L),50-06-6,232.23899999999995,3,2,0.7004,1,0.004786300923226385
CCC1(c2ccccc2)C(=O)NC(=O)NC1=O,5-Ethyl-5-phenylbarbital,-2.322,log(mol/L),-2.322,log(mol/L),-,232.23899999999995,3,2,0.7004,1,0.004764309868054156
CCCOC(=O)c1ccc(N)cc1,risocaine,-2.33,log(mol/L),-2.33,log(mol/L),94-12-2,179.21899999999997,3,1,1.8356,1,0.004677351412871981
CCCOC(=O)c1ccc(N)cc1,risocaine,-2.33,log(mol/L),-2.33,log(mol/L),-,179.21899999999997,3,1,1.8356,1,0.004677351412871981
NNC(=O)Nc1ccccc1,4-phenylsemicarbazide,-2.33,log(mol/L),-2.33,log(mol/L),537-47-3,151.16899999999998,2,3,0.6818,1,0.004677351412871981
Cc1ccccc1[N+](=O)[O-],o-Nitrotoluene,-2.33,log(mol/L),-2.33,log(mol/L),-,137.138,2,0,1.9032200000000001,1,0.004677351412871981
CCOc1ccccc1,phenetole,-2.33,log(mol/L),-2.33,log(mol/L),103-73-1,122.16699999999996,1,0,2.0853,1,0.004677351412871981
C=C(C)C,2-Methylpropene,-2.33,log(mol/L),-2.33,log(mol/L),-,56.10799999999999,0,0,1.5824,1,0.004677351412871981
Cc1ccccc1[N+](=O)[O-],2-nitrotoluene,-2.33,log(mol/L),-2.33,log(mol/L),88-72-2,137.138,2,0,1.9032200000000001,1,0.004677351412871981
CCOc1ccccc1,phenetole,-2.33,log(mol/L),-2.33,log(mol/L),-,122.16699999999996,1,0,2.0853,1,0.004677351412871981
CCn1cc(C(=O)O)c(=O)c2cc(F)c(N3CCNC(C)C3)c(F)c21,Lomefloxacin,4647.0,?M/L,-2.333,log(mol/L),-,351.353,5,2,1.7959,1,0.004645152752227493
CC1=CCC(C(C)(C)O)CC1,alpha-TERPINEOL,710.0,mg/L,-2.337,log(mol/L),98-55-5,154.25299999999996,1,1,2.503700000000001,1,0.004602565735813558
COC(=O)c1ccccc1O,methyl salicylate,700.0,mg/L,-2.337,log(mol/L),119-36-8,152.14899999999997,3,1,1.1787999999999998,1,0.004602565735813558
CCC1(c2ccccc2)CCC(=O)NC1=O,glutethimide,-2.337,log(mol/L),-2.337,log(mol/L),-,217.26799999999992,2,1,1.771,1,0.004602565735813558
CC1(C)CON(Cc2ccccc2Cl)C1=O,Clomazone,-2.338,log(mol/L),-2.338,log(mol/L),-,239.702,2,0,2.6400000000000006,1,0.004591980128368685
COC(=O)c1ccccc1O,methyl salicylate,-2.34,log(mol/L),-2.34,log(mol/L),119-36-8,152.14899999999997,3,1,1.1787999999999998,1,0.004570881896148752
CCC1(c2ccccc2)CCC(=O)NC1=O,glutethimide,-2.34,log(mol/L),-2.34,log(mol/L),77-21-4,217.26799999999992,2,1,1.771,1,0.004570881896148752
CNC(=O)Oc1cccc(N=CN(C)C)c1,formetanate,-2.34,log(mol/L),-2.34,log(mol/L),22259-30-9,221.26,3,1,1.6262,1,0.004570881896148752
ICI,Diiodomethane,-2.34,log(mol/L),-2.34,log(mol/L),-,267.835,0,0,1.8139,1,0.004570881896148752
CCC1(c2ccccc2)C(=O)NC(=O)NC1=O,Phenobarbital,-2.34,log(mol/L),-2.34,log(mol/L),50-06-6,232.23899999999995,3,2,0.7004,1,0.004570881896148752
CCC1(c2ccccc2)C(=O)NC(=O)NC1=O,Phenobarbital,-2.34,log(mol/L),-2.34,log(mol/L),-,232.23899999999995,3,2,0.7004,1,0.004570881896148752
Oc1c(Cl)cc(Cl)cc1Cl,"2,4,6-trichlorophenol",-2.34,log(mol/L),-2.34,log(mol/L),88-06-2,197.44799999999998,1,1,3.3523999999999994,1,0.004570881896148752
CNC(=O)Oc1cccc(N=CN(C)C)c1,formetanate,-2.34,log(mol/L),-2.34,log(mol/L),-,221.26,3,1,1.6262,1,0.004570881896148752
CCC1(c2ccccc2)CCC(=O)NC1=O,glutethimide,-2.34,log(mol/L),-2.34,log(mol/L),-,217.26799999999992,2,1,1.771,1,0.004570881896148752
Oc1c(Cl)cc(Cl)cc1Cl,"2,4,6-trichlorophenol",-2.34,log(mol/L),-2.34,log(mol/L),-,197.44799999999998,1,1,3.3523999999999994,1,0.004570881896148752
O=C1NC(=O)C2(CCCC2)C(=O)N1,Cyclopentyl-5-spirobarbituric acid,-2.349,log(mol/L),-2.349,log(mol/L),-,182.179,3,2,-0.08720000000000011,1,0.004477133041763623
CC1CCC(C(C)C)C(=O)C1,Menthone,-2.35,log(mol/L),-2.35,log(mol/L),-,154.25299999999996,1,0,2.6477000000000013,1,0.0044668359215096305
CCOc1ccc(NC(C)=O)cc1,phenacetin,-2.35,log(mol/L),-2.35,log(mol/L),-,179.219,2,1,2.0437,1,0.0044668359215096305
CCc1cccc(CC)c1N,"2,6-diethylaniline",-2.35,log(mol/L),-2.35,log(mol/L),579-66-8,149.23699999999997,1,1,2.3936,1,0.0044668359215096305
CCOC(=O)c1ccccc1C(=O)OCC,diethyl phthalate,-2.35,log(mol/L),-2.35,log(mol/L),84-66-2,222.23999999999995,4,0,2.04,1,0.0044668359215096305
CCOC(=O)c1ccc(O)cc1,ethyl-p-hydroxybenzoate,-2.35,log(mol/L),-2.35,log(mol/L),120-47-8,166.176,3,1,1.5689,1,0.0044668359215096305
CCOC(=O)c1ccc(O)cc1,ethyl-p-hydroxybenzoate,-2.35,log(mol/L),-2.35,log(mol/L),-,166.176,3,1,1.5689,1,0.0044668359215096305
CCOC(=O)c1ccccc1C(=O)OCC,diethyl phthalate,-2.35,log(mol/L),-2.35,log(mol/L),-,222.23999999999995,4,0,2.04,1,0.0044668359215096305
CCCCCC(=O)OCC,Ethyl hexanoate,-2.35,log(mol/L),-2.35,log(mol/L),-,144.21399999999997,2,0,2.1298000000000004,1,0.0044668359215096305
C=CCC1(C(C)CCC)C(=O)NC(=O)NC1=O,Secobarbital,-2.356,log(mol/L),-2.356,log(mol/L),-,238.28699999999998,3,2,1.3510999999999997,1,0.0044055486350655345
CC(=O)Nc1nnc(S(N)(=O)=O)s1,acetazoleamide,-2.36,log(mol/L),-2.36,log(mol/L),59-66-5,222.251,6,2,-0.8561000000000003,1,0.004365158322401661
C#CCCCC,1-hexyne,-2.36,log(mol/L),-2.36,log(mol/L),693-02-7,82.146,0,0,1.8098,1,0.004365158322401661
CNC(=O)Oc1ccc(N(C)C)c(C)c1,aminocarb,-2.36,log(mol/L),-2.36,log(mol/L),2032-59-9,208.26099999999997,3,1,1.77922,1,0.004365158322401661
CCCCCCCC=O,octanal,-2.36,log(mol/L),-2.36,log(mol/L),124-13-0,128.215,1,0,2.5458000000000007,1,0.004365158322401661
CC(=O)Nc1nnc(S(N)(=O)=O)s1,Acetazolamide,-2.36,log(mol/L),-2.36,log(mol/L),-,222.251,6,2,-0.8561000000000003,1,0.004365158322401661
CSc1ncc2nccnc2n1,4-methylthiopteridine,-2.36,log(mol/L),-2.36,log(mol/L),-,178.22,5,0,1.1416999999999997,1,0.004365158322401661
Sc1ncnc2nccnc12,2-mercaptopteridine,-2.36,log(mol/L),-2.36,log(mol/L),-,164.193,5,1,0.7084999999999999,1,0.004365158322401661
CN(C)C(=O)NC1CCCCCCC1,cycluron,-2.36,log(mol/L),-2.36,log(mol/L),2163-69-1,198.30999999999992,1,1,2.3705,1,0.004365158322401661
CNC(=O)Oc1ccc(N(C)C)c(C)c1,aminocarb,-2.36,log(mol/L),-2.36,log(mol/L),-,208.26099999999997,3,1,1.77922,1,0.004365158322401661
C#CCCCC,1-hexyne,-2.36,log(mol/L),-2.36,log(mol/L),-,82.146,0,0,1.8098,1,0.004365158322401661
CSc1ncnc2nccnc12,4-methylthiopteridine,-2.36,log(mol/L),-2.36,log(mol/L),6966-78-5,178.22000000000003,5,0,1.1417,1,0.004365158322401661
S=c1ncc2nccnc2[nH]1,2-mercaptopteridine,-2.36,log(mol/L),-2.36,log(mol/L),16878-76-5,164.19299999999998,4,1,1.0823899999999997,1,0.004365158322401661
C=CCC1(c2ccccc2)C(=O)NC(=O)NC1=O,5-Allyl-5-phenylbarbital,-2.369,log(mol/L),-2.369,log(mol/L),-,244.24999999999997,3,2,0.8664999999999996,1,0.00427562886151586
CCCCBr,1-bromobutane,-2.37,log(mol/L),-2.37,log(mol/L),109-65-9,137.01999999999998,0,0,2.1814,1,0.004265795188015926
Nc1ccc([N+](=O)[O-])cc1,p-Nitroaniline,-2.37,log(mol/L),-2.37,log(mol/L),-,138.126,3,1,1.177,1,0.004265795188015926
Nc1ccc([N+](=O)[O-])cc1,4-nitroaniline,-2.37,log(mol/L),-2.37,log(mol/L),100-01-6,138.126,3,1,1.177,1,0.004265795188015926
CCOc1ccc(NC(C)=O)cc1,phenacetin,-2.37,log(mol/L),-2.37,log(mol/L),62-44-2,179.219,2,1,2.0437,1,0.004265795188015926
CCCCBr,1-bromobutane,-2.37,log(mol/L),-2.37,log(mol/L),-,137.01999999999998,0,0,2.1814,1,0.004265795188015926
Clc1ccccc1,chlorobenzene,-2.38,log(mol/L),-2.38,log(mol/L),-,112.55899999999997,0,0,2.34,1,0.004168693834703355
ClCC(Br)CBr,"1,2-dibromo-3-chloropropane",-2.38,log(mol/L),-2.38,log(mol/L),96-12-8,236.33399999999997,0,0,2.3836000000000004,1,0.004168693834703355
N#Cc1ccccc1C#N,phthalonitrile,-2.38,log(mol/L),-2.38,log(mol/L),91-15-6,128.13399999999996,2,0,1.4299600000000001,1,0.004168693834703355
Oc1ncnc2[nH]ncc12,allopurinol,-2.38,log(mol/L),-2.38,log(mol/L),315-30-0,136.114,4,2,0.058499999999999885,1,0.004168693834703355
Fc1cc(F)c(F)cc1F,"1,2,4,5-tetrafluorobenzene",-2.38,log(mol/L),-2.38,log(mol/L),327-54-8,150.07399999999998,0,0,2.2430000000000003,1,0.004168693834703355
Clc1ccccc1,chlorobenzene,-2.38,log(mol/L),-2.38,log(mol/L),108-90-7,112.55899999999997,0,0,2.34,1,0.004168693834703355
N#Cc1ccccc1C#N,phthalonitrile,-2.38,log(mol/L),-2.38,log(mol/L),-,128.13399999999996,2,0,1.4299600000000001,1,0.004168693834703355
ClCC(Br)CBr,"1,2-dibromo-3-chloropropane",-2.38,log(mol/L),-2.38,log(mol/L),-,236.33399999999997,0,0,2.3836000000000004,1,0.004168693834703355
Oc1ccccc1-c1ccccc1,2-phenylphenol,-2.39,log(mol/L),-2.39,log(mol/L),90-43-7,170.211,1,1,3.0592000000000015,1,0.004073802778041126
CCC(C)C1(CC)C(=O)NC(=O)NC1=O,Butabarbital,-2.39,log(mol/L),-2.39,log(mol/L),-,212.249,3,2,0.7948999999999999,1,0.004073802778041126
ClCc1ccccc1,alfa-chlorotoluene,-2.39,log(mol/L),-2.39,log(mol/L),100-44-7,126.58599999999996,0,0,2.4254000000000007,1,0.004073802778041126
CSc1ccccc1,thioanisole,-2.39,log(mol/L),-2.39,log(mol/L),100-68-5,124.20799999999996,1,0,2.4085,1,0.004073802778041126
CCCCCCCCO,1-octanol,-2.39,log(mol/L),-2.39,log(mol/L),111-87-5,130.23100000000002,1,1,2.3392000000000013,1,0.004073802778041126
CCCCCCCCO,1-octanol,-2.39,log(mol/L),-2.39,log(mol/L),-,130.23100000000002,1,1,2.3392000000000013,1,0.004073802778041126
Cc1ccsc1,3-methylthiophene,-2.39,log(mol/L),-2.39,log(mol/L),616-44-4,98.17,1,0,2.05652,1,0.004073802778041126
CCCC(C)C1(CC)C(=O)NC(=O)NC1=O,pentobarbital,-2.39,log(mol/L),-2.39,log(mol/L),-,226.276,3,2,1.1849999999999998,1,0.004073802778041126
CSc1ccccc1,thioanisole,-2.39,log(mol/L),-2.39,log(mol/L),-,124.20799999999996,1,0,2.4085,1,0.004073802778041126
ClCc1ccccc1,Benzylchloride,-2.39,log(mol/L),-2.39,log(mol/L),-,126.58599999999996,0,0,2.4254000000000007,1,0.004073802778041126
COc1c2occc2c(OC)c2c(=O)cc(C)oc12,khellin,-2.4,log(mol/L),-2.4,log(mol/L),82-02-0,260.24499999999995,5,0,2.8648200000000017,1,0.003981071705534973
C=C(C)C(=C)C,"2,3-Dimethyl-1,3-Butadiene",-2.4,log(mol/L),-2.4,log(mol/L),-,82.14599999999999,0,0,2.1386000000000003,1,0.003981071705534973
CCCC(Cl)Cl,"1,1-dichlorobutane",-2.4,log(mol/L),-2.4,log(mol/L),541-33-3,127.01400000000001,0,0,2.590200000000001,1,0.003981071705534973
CCC1(CC)C(=O)NC(=O)NC1=O,barbital,-2.4,log(mol/L),-2.4,log(mol/L),-,184.195,3,2,0.15879999999999994,1,0.003981071705534973
COc1c2occc2c(OC)c2c(=O)cc(C)oc12,khellin,-2.4,log(mol/L),-2.4,log(mol/L),-,260.24499999999995,5,0,2.8648200000000017,1,0.003981071705534973
Nc1nc(N)c2nc(-c3ccccc3)c(N)nc2n1,Triamterene,-2.404,log(mol/L),-2.404,log(mol/L),-,253.26900000000003,7,3,0.8334000000000001,1,0.003944573020752785
CC(C)(C)c1ccc(O)cc1,p-t-butylphenol,-2.41,log(mol/L),-2.41,log(mol/L),98-54-4,150.22099999999998,1,1,2.689700000000001,1,0.003890451449942805
COc1ccc([N+](=O)[O-])cc1,p-Nitroanisole,-2.41,log(mol/L),-2.41,log(mol/L),-,153.137,3,0,1.6033999999999997,1,0.003890451449942805
CC(C)(C)c1ccc(O)cc1,p-t-butylphenol,-2.41,log(mol/L),-2.41,log(mol/L),-,150.22099999999998,1,1,2.689700000000001,1,0.003890451449942805
Cc1nnc(NS(=O)(=O)c2ccc(N)cc2)s1,sulfamethiazole,-2.41,log(mol/L),-2.41,log(mol/L),144-82-1,270.339,6,2,1.2295199999999997,1,0.003890451449942805
COC(=O)c1ccc(OC)cc1,methyl-4-methoxybenzoate,-2.41,log(mol/L),-2.41,log(mol/L),121-98-2,166.176,3,0,1.4818,1,0.003890451449942805
COc1ccc([N+](=O)[O-])cc1,4-nitroanisole,-2.41,log(mol/L),-2.41,log(mol/L),100-17-4,153.137,3,0,1.6033999999999997,1,0.003890451449942805
CCSSCC,Diethyldisulfide,-2.42,log(mol/L),-2.42,log(mol/L),-,122.258,2,0,2.4076000000000004,1,0.0038018939632056127
Oc1cccc2cccnc12,8-quinolinol,-2.42,log(mol/L),-2.42,log(mol/L),148-24-3,145.16099999999997,2,1,1.9403999999999995,1,0.0038018939632056127
Cc1c[nH]c2ccccc12,3-methylindole,-2.42,log(mol/L),-2.42,log(mol/L),83-34-1,131.17799999999997,0,1,2.4763200000000003,1,0.0038018939632056127
Cc1c[nH]c2ccccc12,3-methylindole,-2.42,log(mol/L),-2.42,log(mol/L),-,131.17799999999997,0,1,2.4763200000000003,1,0.0038018939632056127
Oc1cccc2cccnc12,8-quinolinol,-2.42,log(mol/L),-2.42,log(mol/L),-,145.16099999999997,2,1,1.9403999999999995,1,0.0038018939632056127
CC(C)CBr,1-bromo-2-methylpropane,-2.43,log(mol/L),-2.43,log(mol/L),-,137.01999999999998,0,0,2.0373,1,0.003715352290971724
Nc1ccc(S(=O)(=O)Nc2nccs2)cc1,sulfathiozole,-2.43,log(mol/L),-2.43,log(mol/L),72-14-0,255.32400000000004,5,2,1.5261,1,0.003715352290971724
Cc1cc(=O)[nH]c(=S)[nH]1,methylthiouracil,-2.43,log(mol/L),-2.43,log(mol/L),56-04-2,142.18300000000002,2,2,0.74091,1,0.003715352290971724
CC1=C(C(=O)Nc2ccccc2)S(=O)(=O)CCO1,oxycarboxin,-2.43,log(mol/L),-2.43,log(mol/L),5259-88-1,267.306,4,1,1.3016,1,0.003715352290971724
CC(C)CBr,1-bromo-2-methylpropane,-2.43,log(mol/L),-2.43,log(mol/L),78-77-3,137.01999999999998,0,0,2.0373,1,0.003715352290971724
OCCC(F)(F)C(F)(F)C(F)(F)C(F)(F)F,-,2.99,log(mg/L),-2.432,log(mol/L),2043-47-2,264.087,1,1,2.8370000000000006,1,0.003698281797802663
CC(=O)Nc1nnc(S(N)(=O)=O)s1,Acetazolamide,3671.3,?M/L,-2.435,log(mol/L),-,222.251,6,2,-0.8561000000000003,1,0.003672823004980846
Cc1cc(=O)[nH]c(=S)[nH]1,methylthiouracil,-2.436,log(mol/L),-2.436,log(mol/L),-,142.18300000000002,2,2,0.74091,1,0.0036643757464783332
Cc1cccc([N+](=O)[O-])c1,3-nitrotoluene,-2.44,log(mol/L),-2.44,log(mol/L),99-08-1,137.138,2,0,1.90322,1,0.003630780547701014
Cc1nc(NS(=O)(=O)c2ccc(N)cc2)oc1C,sulfamoxole,-2.44,log(mol/L),-2.44,log(mol/L),729-99-7,267.31,5,2,1.67444,1,0.003630780547701014
Cc1cccc([N+](=O)[O-])c1,m-Nitrotoluene,-2.44,log(mol/L),-2.44,log(mol/L),-,137.138,2,0,1.90322,1,0.003630780547701014
Cc1nc(NS(=O)(=O)c2ccc(N)cc2)oc1C,sulfamoxole,-2.44,log(mol/L),-2.44,log(mol/L),-,267.31,5,2,1.67444,1,0.003630780547701014
CC(Oc1ccc(Cl)cc1Cl)C(=O)O,dichlorprop,-2.45,log(mol/L),-2.45,log(mol/L),120-36-5,235.06599999999997,2,1,2.845300000000001,1,0.0035481338923357532
Cc1c[nH]c(=S)[nH]c1=O,5-methyl-2-thiouracil,-2.45,log(mol/L),-2.45,log(mol/L),636-26-0,142.18300000000002,2,2,0.74091,1,0.0035481338923357532
Cc1cnc(S)nc1O,5-methyl-2-thiouracil,-2.45,log(mol/L),-2.45,log(mol/L),636-26-0,142.18300000000002,4,2,0.7793199999999998,1,0.0035481338923357532
Oc1ncnc2[nH]ncc12,allopurinol,-2.45,log(mol/L),-2.45,log(mol/L),-,136.114,4,2,0.058499999999999885,1,0.0035481338923357532
CCCOC(=O)c1ccc(N)cc1,risocaine,-2.452,log(mol/L),-2.452,log(mol/L),-,179.21899999999997,3,1,1.8356,1,0.00353183169791957
CCCCCCOC(C)=O,hexyl acetate,-2.46,log(mol/L),-2.46,log(mol/L),142-92-7,144.21399999999997,2,0,2.1298000000000004,1,0.0034673685045253167
CC(C)=CCCC(C)=CCO,Nerol,-2.46,log(mol/L),-2.46,log(mol/L),-,154.253,1,1,2.6714000000000016,1,0.0034673685045253167
COc1ccccc1Cl,2-Chloroanisole,-2.46,log(mol/L),-2.46,log(mol/L),-,142.58499999999998,1,0,2.3486000000000002,1,0.0034673685045253167
CCCC=C(C=O)CC,2-Ethyl-2-hexanal,-2.46,log(mol/L),-2.46,log(mol/L),-,126.19899999999998,1,0,2.3218000000000005,1,0.0034673685045253167
Cc1cc(C(=O)NNCc2ccccc2)no1,Isocarboxazid,-2.461,log(mol/L),-2.461,log(mol/L),-,231.25500000000002,4,2,1.4176199999999997,1,0.0034593937782612205
CCC1(CCC(C)C)C(=O)NC(=O)NC1=O,amobarbital,-2.468,log(mol/L),-2.468,log(mol/L),-,226.27599999999998,3,2,1.1849999999999998,1,0.003404081897010009
CCCCCC(O)C=CC1C(O)CC(=O)C1CC=CCCCC(=O)O,Prostaglandin_E2,-2.47,log(mol/L),-2.47,log(mol/L),-,352.4710000000001,4,3,3.251100000000002,1,0.003388441561392024
Nc1cc(Cl)cc(C(=O)O)c1Cl,chloramben,-2.47,log(mol/L),-2.47,log(mol/L),-,206.028,2,2,2.2738,1,0.003388441561392024
Nc1cc(Cl)cc(C(=O)O)c1Cl,chloramben,-2.47,log(mol/L),-2.47,log(mol/L),133-90-4,206.028,2,2,2.2738,1,0.003388441561392024
CCCCCC(O)C=CC1C(O)CC(=O)C1CC=CCCCC(=O)O,Prostaglandin E2,-2.47,log(mol/L),-2.47,log(mol/L),363-24-6,352.4710000000001,4,3,3.251100000000002,1,0.003388441561392024
COc1nc(NC(C)C)nc(NC(C)C)n1,Prometon,-2.478,log(mol/L),-2.478,log(mol/L),-,225.296,6,2,1.5208,1,0.0033265955329400436
O=C(O)C=Cc1ccccc1,cinnamic acid,-2.48,log(mol/L),-2.48,log(mol/L),621-82-9,148.161,1,1,1.7844,1,0.003311311214825911
NC(N)=Nc1nc(CSCCC(N)=NS(N)(=O)=O)cs1,Famotidine,-2.48,log(mol/L),-2.48,log(mol/L),-,337.456,6,4,-0.7679999999999998,1,0.003311311214825911
Cc1[nH]c(=O)n(C(C)(C)C)c(=O)c1Cl,terbacil,-2.48,log(mol/L),-2.48,log(mol/L),5902-51-2,216.66799999999998,3,1,1.25342,1,0.003311311214825911
CC(C)N(C(=O)CCl)c1ccccc1,propachlor,-2.48,log(mol/L),-2.48,log(mol/L),1918-16-7,211.69200000000004,1,0,2.666800000000001,1,0.003311311214825911
CC(C)N(C(=O)CCl)c1ccccc1,propachlor,-2.48,log(mol/L),-2.48,log(mol/L),-,211.69200000000004,1,0,2.666800000000001,1,0.003311311214825911
COC(=O)CS(=O)(=O)c1ccc(Br)cc1,"ACETIC ACID, [(4-BROMOPHENYL)SULFONYL]-, METHYL",971.0,mg/L,-2.48,log(mol/L),50397-65-4,293.13800000000003,4,0,1.3958,1,0.003311311214825911
Cc1nnc(NS(=O)(=O)c2ccc(N)cc2)s1,Sulfamethizole,-2.48,log(mol/L),-2.48,log(mol/L),-,270.339,6,2,1.2295199999999997,1,0.003311311214825911
Cc1[nH]c(=O)n(C(C)(C)C)c(=O)c1Cl,terbacil,-2.484,log(mol/L),-2.484,log(mol/L),-,216.66799999999998,3,1,1.25342,1,0.0032809529311311906
CC1CCC(C(C)C)C(=O)C1,l-menthone,-2.49,log(mol/L),-2.49,log(mol/L),14073-97-3,154.25299999999996,1,0,2.6477000000000013,1,0.003235936569296281
Cc1ccc([N+](=O)[O-])cc1,4-nitrotoluene,-2.49,log(mol/L),-2.49,log(mol/L),99-99-0,137.138,2,0,1.90322,1,0.003235936569296281
Cc1ccc([N+](=O)[O-])cc1,p-Nitrotoluene,-2.49,log(mol/L),-2.49,log(mol/L),-,137.138,2,0,1.90322,1,0.003235936569296281
CNC(=C[N+](=O)[O-])NCCSCc1ccc(CN(C)C)o1,Ranitidine,3156.04,?M/L,-2.501,log(mol/L),-,314.411,7,2,1.4589999999999999,1,0.0031550046233746274
CCC(C)(C)Cl,2-chloro-2-methylbutane,-2.51,log(mol/L),-2.51,log(mol/L),594-36-5,106.59599999999999,0,0,2.4138,1,0.003090295432513592
O=C(O)COc1ccc(Cl)cc1Cl,"2,4-d",-2.51,log(mol/L),-2.51,log(mol/L),94-75-7,221.039,2,1,2.4568000000000003,1,0.003090295432513592
FC(F)(F)c1ccccc1,Benzyltrifluoride,-2.51,log(mol/L),-2.51,log(mol/L),-,146.111,0,0,2.705400000000001,1,0.003090295432513592
CCC(C)(C)Cl,2-chloro-2-methylbutane,-2.51,log(mol/L),-2.51,log(mol/L),-,106.59599999999999,0,0,2.4138,1,0.003090295432513592
C#CCN(C)C(C)Cc1ccccc1,Deprenyl,3072.66,?M/L,-2.512,log(mol/L),-,187.286,1,0,2.1826,1,0.003076096814740708
CCOC(=O)N(C)C(=O)CSP(=S)(OCC)OCC,Mecarbam,-2.518,log(mol/L),-2.518,log(mol/L),-,329.3800000000001,7,0,2.6320000000000006,1,0.0030338911841942717
CN(C)C1C(O)=C(C(N)=O)C(=O)C2(O)C(O)=C3C(=O)c4c(O)ccc(Cl)c4C(O)C3CC12,demeclocycline,-2.52,log(mol/L),-2.52,log(mol/L),-,464.8580000000002,9,6,0.2649000000000006,0,0.003019951720402016
OC(Cc1ccccc1)c1ccccc1,"dl-1,2-diphenylethanol",-2.52,log(mol/L),-2.52,log(mol/L),614-29-9,198.265,1,1,2.9627000000000008,1,0.003019951720402016