SMILES,NAME,Water solubility,UNIT {Water solubility},Solubility_log(mol/L),UNIT {Water solubility}.1,CASRN
ClC1=CC(Cl)=C(Cl)C=C1Cl,"1,2,4,5-Tetrachlorobenzene",-5.56,log(mol/L),-5.56,log(mol/L),-
ClC1=C(C=C(C(=C1)Cl)Cl)Cl,"1,2,4,5-Tetrachlorobenzene",-5.56,log(mol/L),-5.56,log(mol/L),-
FC1=CC=C2N=C(N3N=CN=C3)N(C4=CC=C(Cl)C=C4Cl)C(=O)C2=C1,Fluquinconazole,1.0,mg/L,-5.575,log(mol/L),136426-54-5
[Sn](C1CCCCC1)(C2CCCCC2)C3CCCCC3.O,Cyhexatin,-5.59,log(mol/L),-5.59,log(mol/L),13121-70-5
C1(=CC(=CC(Br)=C1)Br)Br,"1,3,5-Tribromobenzene",0.79,mg/L,-5.6,log(mol/L),626-39-1
BrC1=CC(=CC(=C1)Br)Br,"1,3,5-Tribromobenzene",-5.6,log(mol/L),-5.6,log(mol/L),-
BrC1=CC(Br)=CC(Br)=C1,"1,3,5-Tribromobenzene",-5.6,log(mol/L),-5.6,log(mol/L),-
CC1CC2C3CC(F)C4=CC(=O)C=CC4(C)C3(F)C(O)CC2(C)C1(O)C(=O)CO,Flumethasone,-5.613,log(mol/L),-5.613,log(mol/L),-
BrC1=CC=C(OC2=CC=C(Br)C=C2)C=C1,"4,4'-Dibromodiphenyl ether; BDE-015",0.00241,mmol/L,-5.618,log(mol/L),2050-47-7
ClC12C(Cl)=C(Cl)C(C1(Cl)Cl)(Cl)C3C2C=CC3,chlordene,-5.64,log(mol/L),-5.64,log(mol/L),3734-48-3
O=C(OCC1=CC=CC=C1)C2=CC=CC=C2C(OCCCC)=O,benzyl butyl phthalate,-5.64,log(mol/L),-5.64,log(mol/L),85-68-7
N#CC1=C(Cl)C(Cl)=C(Cl)C(C#N)=C1Cl,chlorothalonil,-5.64,log(mol/L),-5.64,log(mol/L),1897-45-6
ClC12C3C(C(C1(Cl)Cl)(C(=C2Cl)Cl)Cl)C=CC3,chlordene,-5.64,log(mol/L),-5.64,log(mol/L),-
ClC1=C(C(=C(C(=C1Cl)C#N)Cl)C#N)Cl,chlorothalonil,-5.64,log(mol/L),-5.64,log(mol/L),-
ClC1=C(Cl)C2(Cl)C3C=CCC3C1(Cl)C2(Cl)Cl,chlordene,-5.64,log(mol/L),-5.64,log(mol/L),-
C1(C#N)=C(Cl)C(C#N)=C(Cl)C(Cl)=C1Cl,chlorothalonil,-5.64,log(mol/L),-5.64,log(mol/L),-
ClC1=C(Cl)C=C(Cl)C(Cl)=C1Cl,pentachlorobenzene,-5.65,log(mol/L),-5.65,log(mol/L),608-93-5
ClC1=CC(Cl)=C(Cl)C(Cl)=C1Cl,pentachlorobenzene,-5.65,log(mol/L),-5.65,log(mol/L),-
ClC1=C(C(=CC(=C1Cl)Cl)Cl)Cl,pentachlorobenzene,-5.65,log(mol/L),-5.65,log(mol/L),-
O=C(C1=NN(C(=N1)C(Cl)(Cl)Cl)C2=CC=C(C=C2Cl)Cl)OCC,Fenchlorazole-ethyl,0.9,mg/L,-5.652,log(mol/L),103112-35-2
CCOC(=O)C1=NN(C(=N1)C(Cl)(Cl)Cl)C2=C(Cl)C=C(Cl)C=C2,-,-0.04575749,log(mg/L),-5.652,log(mol/L),103112-35-2
O=C1CCC2(C)C(CCC3C2CCC4(C)C3CCC4(C#C)O)=C1,ethisterone,-5.66,log(mol/L),-5.66,log(mol/L),434-03-7
CC12CCC(=O)C=C1CCC3C2CCC4(C)C3CCC4(O)C#C,ethisterone,-5.66,log(mol/L),-5.66,log(mol/L),-
NC(=O)C1=NN(C(=N1)C2=CC=CC=C2)C3=CC(COCC(F)(F)C(F)(F)F)=C(Cl)C=C3,-,0.0,log(mg/L),-5.663,log(mol/L),119126-15-7
N1=C(C(=O)N)N=C(C2=CC=CC=C2)N1C3=CC(COCC(F)(F)C(F)(F)F)=C(Cl)C=C3,Flupoxam,1.0,mg/L,-5.663,log(mol/L),119126-15-7
OC(C1=CC=C(Cl)C=C1)(C2=CC=C(Cl)C=C2)C(Cl)(Cl)Cl,Dicofol,-5.666,log(mol/L),-5.666,log(mol/L),-
CCOP(=S)(OCC)OC1=NC(Cl)=C(Cl)C=C1Cl,chlorpyrifos,-5.67,log(mol/L),-5.67,log(mol/L),-
S=P(OC1=NC(Cl)=C(Cl)C=C1Cl)(OCC)OCC,chlorpyriphos,-5.67,log(mol/L),-5.67,log(mol/L),2921-88-2
CCCCCCCCCCCCCCCCCC(O)=O,stearic acid,-5.68,log(mol/L),-5.68,log(mol/L),57-11-4
CCCN(CCC)C1=C(C=C(C=C1N(=O)=O)C(F)(F)F)N(=O)=O,trifluralin,-5.68,log(mol/L),-5.68,log(mol/L),-
O=N(=O)C1=CC(C(F)(F)F)=CC(N(=O)=O)=C1N(CCC)CCC,trifluralin,-5.68,log(mol/L),-5.68,log(mol/L),1582-09-8
ClC1=C(C=C(C(=C1)Cl)OC(C)C)N2N=C(OC2=O)C(C)(C)C,oxadiazon,-5.69,log(mol/L),-5.69,log(mol/L),-
CC(OC1=CC(N2N=C(C(C)(C)C)OC2=O)=C(C=C1Cl)Cl)C,oxadiazon,-5.69,log(mol/L),-5.69,log(mol/L),19666-30-9
CC(C)OC1=CC(=C(Cl)C=C1Cl)N2N=C(OC2=O)C(C)(C)C,oxadiazon,-5.696,log(mol/L),-5.696,log(mol/L),-
COP(=S)(OC)OC1=CC(Cl)=C(Cl)C=C1Cl,ronnel,-5.72,log(mol/L),-5.72,log(mol/L),-
S=P(OC)(OC)OC1=CC(Cl)=C(Cl)C=C1Cl,ronnel,-5.72,log(mol/L),-5.72,log(mol/L),299-84-3
ClC1=C(C=C(C(=C1)Cl)OP(=S)(OC)OC)Cl,ronnel,-5.72,log(mol/L),-5.72,log(mol/L),-
CCOP(=S)(OCC)SCSC1=CC=C(Cl)C=C1,Carbophenthion,-5.736,log(mol/L),-5.736,log(mol/L),-
S=P(OCC)(OCC)SCSC1=CC=C(Cl)C=C1,carbophenothion,-5.74,log(mol/L),-5.74,log(mol/L),786-19-6
ClC1=C(C=C(C(=C1)Cl)OP(=S)(OCC)CC)Cl,Trichloronate,-5.75,log(mol/L),-5.75,log(mol/L),-
CCOP(=S)(CC)OC1=CC(Cl)=C(Cl)C=C1Cl,Trichloronate,-5.752,log(mol/L),-5.752,log(mol/L),-
N(=O)(=O)C1=C(C(N(=O)=O)=C(C(N(=O)=O)=C1C)C(C)(C)C)C,FRA-044; Musk xylene,0.49,mg/L,-5.783,log(mol/L),81-15-2
N1(CC(C2=C(Cl)C=C(Cl)C=C2)OCC3=C(Cl)C=C(Cl)C=C3)C=NC=C1,miconazole,-5.79,log(mol/L),-5.79,log(mol/L),-
C1(=C(CN(CC)CC)C=C(C=C1)NC2=CC=NC3=C2C=CC(=C3)Cl)O,amodiaquine,1.61562,?M/L,-5.792,log(mol/L),-
ClC1=CC=CC(C2=CC(Cl)=CC=C2)=C1,"3,3'-pcb",-5.8,log(mol/L),-5.8,log(mol/L),2050-67-1
C1=CC=C2N=C3C=C(NC4=CC=C(Cl)C=C4)C(=NC(C)C)C=C3N(C5=CC=C(Cl)C=C5)C2=C1,Clofazimine,-5.8,log(mol/L),-5.8,log(mol/L),-
ClC1=CC=CC(C2=CC(Cl)=CC=C2)=C1,"3,3?-pcb",-5.8,log(mol/L),-5.8,log(mol/L),2050-67-1
C1C(=O)C=C2CCC3C4CCC(O)(C#C)C4(C)CCC3C2(C)C1,ethisterone,-5.8,log(mol/L),-5.8,log(mol/L),-
O=N(C1=C(Cl)C(Cl)=C(Cl)C(Cl)=C1Cl)=O,quintozene,-5.82,log(mol/L),-5.82,log(mol/L),82-68-8
ClC1=C(Cl)C(Cl)=C(N(=O)=O)C(Cl)=C1Cl,quintozene,-5.82,log(mol/L),-5.82,log(mol/L),-
CSC1=CC=C2SC3=CC=CC=C3N(CCC4CCCCN4C)C2=C1,Thioridazine,-5.82,log(mol/L),-5.82,log(mol/L),-
CN(CCO)S(=O)(=O)C(F)(F)C(F)(F)C(F)(F)C(F)(F)C(F)(F)C(F)(F)C(F)(F)C(F)(F)F,-,-0.09,log(mg/L),-5.836,log(mol/L),24448-09-7
CC(=O)CC(C1=CC=C(Cl)C=C1)C2=C(O)C=3C=CC=CC3OC2=O,Coumachlor,-5.839,log(mol/L),-5.839,log(mol/L),-
CCCCCCCCCCCCCCO,1-Tetradecanol,-5.84,log(mol/L),-5.84,log(mol/L),-
CC1=CC2=C(C3=C(C=C2)C=CC=C3)C=C1,2-Methylphenanthrene,-5.84,log(mol/L),-5.84,log(mol/L),-
CC1=CC=C2C(C=CC=3C=CC=CC32)=C1,2-Methylphenanthrene,-5.84,log(mol/L),-5.84,log(mol/L),-
CC1=CC=CC2=C1C=CC3=C2C=CC=C3,1-Methylphenanthrene,-5.85,log(mol/L),-5.85,log(mol/L),-
C1=CN(C=N1)C(C2=CC=CC=C2)C3=CC=C(C=C3)C4=CC=CC=C4,Bifonazole,-5.85,log(mol/L),-5.85,log(mol/L),-
CC1=CC=CC2=C1C=CC=3C=CC=CC32,1-Methylphenanthrene,-5.85,log(mol/L),-5.85,log(mol/L),-
CN(C)CCC=C1C2=CC=CC=C2SC3=CC=C(C=C13)Cl,chlorprothixene_form_II,1.36105,?M/L,-5.866,log(mol/L),-
CCCCCCCCC,Nonane,-5.88,log(mol/L),-5.88,log(mol/L),-
O=C1N(COC(=O)CCCCC)C(=O)C(N1)(C2=CC=CC=C2)C3=CC=CC=C3,3-Hexanoyloxymethylphenyltoin,-5.886,log(mol/L),-5.886,log(mol/L),-
CC=1C=2C=CC=CC2C=C3C1C=CC=C3,9-methylanthracene,-5.89,log(mol/L),-5.89,log(mol/L),779-02-2
C1=CC=C(Cl)C(Cl)=C1C2C(C(=O)OC)=C(C)NC(C)=C2C(=O)OCC,felodipine,-5.89,log(mol/L),-5.89,log(mol/L),-
CC=1C=2C=CC=CC2C=C3C=CC=CC13,9-methylanthracene,-5.89,log(mol/L),-5.89,log(mol/L),-
CC1=C2C(=CC3=C1C=CC=C3)C=CC=C2,9-methylanthracene,-5.89,log(mol/L),-5.89,log(mol/L),-
ClC1=CC=C(CN(C2CCCC2)C(=O)NC3=CC=CC=C3)C=C1,Pencycuron,-5.915,log(mol/L),-5.915,log(mol/L),-
OC1=C(C2CCC(CC2)C3=CC=C(Cl)C=C3)C(=O)C4=CC=CC=C4C1=O,"Atovaquone(0,430mg/ml) - neutral",-5.931,log(mol/L),-5.931,log(mol/L),-
CCOP(=S)(OCC)OC1=CC(Cl)=C(Br)C=C1Cl,Bromophos ethyl,0.44,mg/L,-5.952,log(mol/L),4824-78-6
C12=C3C4=CC=C1CCCC2=CC=C3CCC4,"1,2,3,6,7,8-hexahydropyrene",-5.96,log(mol/L),-5.96,log(mol/L),1732-13-4
C1CC2=C3C4=C(CCCC4=CC=C3C1)C=C2,"1,2,3,6,7,8-hexahydropyrene",-5.96,log(mol/L),-5.96,log(mol/L),-
CCC(C)(C)C(=O)OC1CC(C)C=C2C1C(C(C=C2)C)CCC3OC(=O)CC(O)C3,Simvastatin,-6.0,log(mol/L),-6.0,log(mol/L),-
CCC(C)C(=O)OC1CC(C)C=C2C1C(C(C=C2)C)CCC3OC(=O)CC(O)C3,Lovastatin,-6.0,log(mol/L),-6.0,log(mol/L),-
C12=C3C=CC=C1C=CC=C2C4=C3C=CC=C4,Fluoranthene,-6.0,log(mol/L),-6.0,log(mol/L),-
CC(CCC(O)=O)C1CCC2C3CCC4CC(O)CCC4(C)C3CCC12C,Lithocholic Acid,-6.0,log(mol/L),-6.0,log(mol/L),-
C1=CC=C2C(=C1)C=3C=CC=C4C=CC=C2C34,Fluoranthene,-6.0,log(mol/L),-6.0,log(mol/L),-
C12=C(C=CC=C1)C=3C=CC=C4C3C2=CC=C4,Fluoranthene,-6.0,log(mol/L),-6.0,log(mol/L),206-44-0
CCC(C)C(=O)OC1CC(C)C=C2C=CC(C)C(CCC3CC(O)CC(=O)O3)C12,Lovastatin,-6.005,log(mol/L),-6.005,log(mol/L),-
ClC1=CC(C2=CC(Cl)=CC=C2Cl)=CC=C1,"2,3?,5-pcb",-6.01,log(mol/L),-6.01,log(mol/L),38444-81-4
ClC1=CC=CC(=C1)C2=CC(Cl)=CC=C2Cl,"2,3',5-PCB",-6.01,log(mol/L),-6.01,log(mol/L),-
CC1=CC=C(OP(=O)(OC2=CC=CC(C)=C2)OC3=CC=CC=C3C)C=C1,tricresyl phosphate,-6.01,log(mol/L),-6.01,log(mol/L),-
ClC1=CC(C2=CC(Cl)=CC=C2Cl)=CC=C1,"2,3',5-PCB",-6.01,log(mol/L),-6.01,log(mol/L),38444-81-4
ClC1=C(C=C(C=C1)Cl)C2=CC(=CC=C2)Cl,"2,3?,5-PCB",-6.01,log(mol/L),-6.01,log(mol/L),-
O=C(NC(NC1=CC=C(Cl)C=C1)=O)C2=C(F)C=CC=C2F,difluron,-6.02,log(mol/L),-6.02,log(mol/L),35367-38-5
FC1=CC=CC(F)=C1C(=O)NC(=O)NC2=CC=C(Cl)C=C2,difluron,-6.02,log(mol/L),-6.02,log(mol/L),-
ClC1=CC(C2=CC=CC=C2Cl)=C(Cl)C=C1,"2,2',5-pcb",-6.02,log(mol/L),-6.02,log(mol/L),37680-65-2
ClC1=C(C=C(C=C1)Cl)C2=C(C=CC=C2)Cl,"2,2?,5-PCB",-6.02,log(mol/L),-6.02,log(mol/L),-
ClC1=CC(C2=CC=CC=C2Cl)=C(Cl)C=C1,"2,2?,5-pcb",-6.02,log(mol/L),-6.02,log(mol/L),37680-65-2
CC1(C)C(C(=O)OC(C#N)C2=CC=CC(OC3=CC=CC=C3)=C2)C1(C)C,Fenpropathrin,-6.025,log(mol/L),-6.025,log(mol/L),-
CCCCCCCCCCCCCCO,myristyl alcohol,-6.05,log(mol/L),-6.05,log(mol/L),112-72-1
C1(CCCC1)CCCCC,Pentylcyclopentane,-6.08,log(mol/L),-6.08,log(mol/L),-
CCCCCC1CCCC1,Pentylcyclopentane,-6.08,log(mol/L),-6.08,log(mol/L),-
COP(=S)(OC)OC1=CC(Cl)=C(Br)C=C1Cl,bromophos,0.3,mg/L,-6.086,log(mol/L),2104-96-3
BrC1=CC(Br)=CC=C1OC2=CC=C(Br)C=C2,"BDE-028; 2,4,4'-tribromodiphenyl ether",8.21E-4,mmol/L,-6.086,log(mol/L),41318-75-6
BrC1=C(C=C(C(=C1)Cl)OP(=S)(OC)OC)Cl,bromophos,-6.09,log(mol/L),-6.09,log(mol/L),-
S=P(OC)(OC)OC1=CC(Cl)=C(Br)C=C1Cl,bromophos,-6.09,log(mol/L),-6.09,log(mol/L),2104-96-3
COP(=S)(OC)OC1=CC(Cl)=C(Br)C=C1Cl,bromophos,-6.09,log(mol/L),-6.09,log(mol/L),-
C1=CC=CC=C1C(O)(C2=CC=CC=C2)C3CCN(CC3)CCCC(O)C4=CC=C(C(C)(C)C)C=C4,Terfenadine,-6.09,log(mol/L),-6.09,log(mol/L),-
CCN(CC(C)=C)C1=C(C=C(C=C1N(=O)=O)C(F)(F)F)N(=O)=O,Ethalfluralin,-6.124,log(mol/L),-6.124,log(mol/L),-
C(=O)(O)C1=CC(=CC=C1O)N=NC2=CC=C(C=C2)S(=O)(NC3=CC=CC=N3)=O,Sulfasalazine,0.726312,?M/L,-6.139,log(mol/L),-
ClC1=CC=C(C=C1)C2=C(Cl)C=CC=C2Cl,"2,4,6-pcb",-6.14,log(mol/L),-6.14,log(mol/L),-
ClC1=C(C(=CC(=C1)Cl)Cl)C2=CC=CC=C2,"2,4,6-pcb",-6.14,log(mol/L),-6.14,log(mol/L),-
ClC1=CC(Cl)=C(C2=CC=CC=C2)C(Cl)=C1,"2,4,6-pcb",-6.14,log(mol/L),-6.14,log(mol/L),35693-92-6
ClC1=C(C(=CC=C1)Cl)C2=CC=C(C=C2)Cl,"2,4,6-pcb",-6.14,log(mol/L),-6.14,log(mol/L),-
BrC1=CC=C(C2=CC=C(C3CC(C=4C(C3)=CC=CC4)C=5C(=O)C=6C(SC5O)=CC=CC6)C=C2)C=C1,Difethialone,0.39,mg/L,-6.141,log(mol/L),104653-34-1
CCCCCCOC(=O)C1=CC=CC=C1C(=O)OCCCCCC,Dihexyl phthalate,-6.144,log(mol/L),-6.144,log(mol/L),-
C1=2C=CC=3C=CC=C4C=CC(=CC=C1)C2C43,pyrene,-6.176,log(mol/L),-6.176,log(mol/L),-
ClC1=C(Cl)C2(Cl)C3C4CC(C5OC45)C3C1(Cl)C2(Cl)Cl,endrin,-6.18,log(mol/L),-6.18,log(mol/L),-
ClC12C3C4C5C(O5)C(C4)C3C(C(=C1Cl)Cl)(Cl)C2(Cl)Cl,endrin,-6.18,log(mol/L),-6.18,log(mol/L),72-20-8
BrC1=CC=C(OC2=CC=C(Br)C=C2)C=C1,"4,4'-Dibromodiphenyl ether; BDE-015",6.57E-7,mol/L,-6.182,log(mol/L),2050-47-7
C1=2C=CC=3C=CC=C4C=CC(=CC=C1)C2C43,pyrene,-6.19,log(mol/L),-6.19,log(mol/L),129-00-0
C=1C=2C3=C4C(=CC=CC4=CC2)C=CC3=CC1,pyrene,-6.19,log(mol/L),-6.19,log(mol/L),-
NC1=CC=2C=3C=CC=CC3C=CC2C=4C=CC=CC14,6-aminochrysene,-6.2,log(mol/L),-6.2,log(mol/L),-
NC=1C2=C(C=CC=C2)C3=C(C1)C4=C(C=C3)C=CC=C4,6-aminochrysene,-6.2,log(mol/L),-6.2,log(mol/L),2642-98-0
ClC1=CC=C(C2=CC=C(C=C2Cl)Cl)C=C1,"2,4,4?-pcb",-6.21,log(mol/L),-6.21,log(mol/L),7012-37-5
ClC1=CC=C(C2=CC=C(C=C2Cl)Cl)C=C1,"2,4,4'-PCB",-6.21,log(mol/L),-6.21,log(mol/L),7012-37-5
ClC1=CC=C(CCC(CN2C=NC=N2)(C#N)C3=CC=CC=C3)C=C1,-,-0.69897,log(mg/L),-6.226,log(mol/L),114369-43-6
C1=CC(Cl)=CC=C1CCC(C#N)(C2=CC=CC=C2)CN3N=CN=C3,Fenbuconazole,0.2,mg/L,-6.226,log(mol/L),114369-43-6
COP(=S)(OC)OC1=CC=C(SC2=CC=C(OP(=S)(OC)OC)C=C2)C=C1,Abate,-6.237,log(mol/L),-6.237,log(mol/L),-
ClC1=CC=C(Cl)C=C1C2=CC=C(Cl)C=C2,"2,4',5-PCB",-6.25,log(mol/L),-6.25,log(mol/L),16606-02-3
ClC1=CC=C(C=C1)C2=CC(Cl)=CC=C2Cl,"2,4',5-PCB",-6.25,log(mol/L),-6.25,log(mol/L),-
ClC1=C(C=C(C=C1)Cl)C2=CC=C(C=C2)Cl,"2,4?,5-PCB",-6.25,log(mol/L),-6.25,log(mol/L),-
ClC1=CC=C(Cl)C=C1C2=CC=C(Cl)C=C2,"2,4?,5-pcb",-6.25,log(mol/L),-6.25,log(mol/L),16606-02-3
ClC1=CC=C(C2=CC=CC(Cl)=C2Cl)C=C1,"2,3,4?-pcb",-6.26,log(mol/L),-6.26,log(mol/L),38444-85-8
ClC1=CC=C(C=C1)C2=CC=CC(Cl)=C2Cl,"2,3,4'-PCB",-6.26,log(mol/L),-6.26,log(mol/L),-
ClC1=CC=C(C2=CC=CC(Cl)=C2Cl)C=C1,"2,3,4'-PCB",-6.26,log(mol/L),-6.26,log(mol/L),38444-85-8
ClC1=CC(Cl)=C(Cl)C=C1C2=CC=CC=C2,"2,4,5-pcb",-6.27,log(mol/L),-6.27,log(mol/L),15862-07-4
ClC1=CC=C(C=C1)C2=CC(Cl)=CC=C2Cl,"2,4,5-pcb",-6.27,log(mol/L),-6.27,log(mol/L),-
ClC1=C(C=C(C(=C1)Cl)C2=CC=CC=C2)Cl,"2,4,5-pcb",-6.27,log(mol/L),-6.27,log(mol/L),-
ClC12C(Cl)=C(Cl)C(C1(Cl)Cl)(C3C(C4C(C23)O4)Cl)Cl,heptachlor epoxide,-6.29,log(mol/L),-6.29,log(mol/L),1024-57-3
ClC12C3C(C4C5OC5C3C4)C(Cl)(C1(Cl)Cl)C(Cl)=C2Cl,dieldrin,-6.29,log(mol/L),-6.29,log(mol/L),60-57-1
ClC1=CC=CC=C1C2=CC=C(Cl)C(Cl)=C2,"2?,3,4-pcb",-6.29,log(mol/L),-6.29,log(mol/L),38444-86-9
CC1(C)C(C=C(Cl)Cl)C1C(=O)OCC2=CC=CC(OC3=CC=CC=C3)=C2,permethrin,-6.29,log(mol/L),-6.29,log(mol/L),52645-53-1
ClC1=CC=C(Cl)C(C2=CC=CC=C2)=C1Cl,"2,3,6-pcb",-6.29,log(mol/L),-6.29,log(mol/L),55702-45-9
ClC1=C(C=CC(=C1C2=CC=CC=C2)Cl)Cl,"2,3,6-pcb",-6.29,log(mol/L),-6.29,log(mol/L),-
ClC12C3C4C5OC5C(C3C(C1(Cl)Cl)(C(=C2Cl)Cl)Cl)C4,endrin,-6.29,log(mol/L),-6.29,log(mol/L),-
ClC12C3C4OC4C(C3C(C1(Cl)Cl)(C(=C2Cl)Cl)Cl)Cl,heptachlor epoxide,-6.29,log(mol/L),-6.29,log(mol/L),-
ClC1=CC=CC=C1C2=CC=C(Cl)C(Cl)=C2,"2',3,4-PCB",-6.29,log(mol/L),-6.29,log(mol/L),38444-86-9
ClC1=C(C=CC(=C1)C2=C(C=CC=C2)Cl)Cl,"2?,3,4-PCB",-6.29,log(mol/L),-6.29,log(mol/L),-
CC1(C)C(C=C(Cl)Cl)C1C(OCC2=CC=CC(OC3=CC=CC=C3)=C2)=O,permethrin,-6.29,log(mol/L),-6.29,log(mol/L),52645-53-1
ClC1=CC=C(C=C1)C2=CC=CC(Cl)=C2Cl,"2',3,4-PCB",-6.29,log(mol/L),-6.29,log(mol/L),-
ClC1=C(Cl)C2(Cl)C3C4CC(C5OC45)C3C1(Cl)C2(Cl)Cl,dieldrin,-6.29,log(mol/L),-6.29,log(mol/L),-
ClC12C3C(C4C5OC5C3C4)C(C1(Cl)Cl)(Cl)C(Cl)=C2Cl,dieldrin,-6.29,log(mol/L),-6.29,log(mol/L),60-57-1
CC1(C)C(C=C(Cl)Cl)C1C(=O)OCC2=CC=CC(OC3=CC=CC=C3)=C2,permethrin,-6.291,log(mol/L),-6.291,log(mol/L),-
S(=O)(=O)(NC=1C=C(C(C2=C(O)CC(OC2=O)(CCC3=CC=CC=C3)CCC)CC)C=CC1)C4=NC=C(C=C4)C(F)(F)F,Tipranavir,-6.3,log(mol/L),-6.3,log(mol/L),-
O=C1N(COC(=O)CCCCCC)C(=O)C(N1)(C2=CC=CC=C2)C3=CC=CC=C3,3-Heptanoyloxymethylphenytoin,-6.301,log(mol/L),-6.301,log(mol/L),-
ClC1=C(Cl)C2(Cl)C3C4CC(C=C4)C3C1(Cl)C2(Cl)Cl,aldrin,-6.307,log(mol/L),-6.307,log(mol/L),-
ClC1C=CC2C1C3(Cl)C(=C(Cl)C2(Cl)C3(Cl)Cl)Cl,heptachlor,-6.317,log(mol/L),-6.317,log(mol/L),-
ClC12C(Cl)=C(Cl)C(C3C1C(Cl)C=C3)(Cl)C2(Cl)Cl,heptachlor,-6.32,log(mol/L),-6.32,log(mol/L),76-44-8
ClC12C3C(C(C1(Cl)Cl)(C(=C2Cl)Cl)Cl)C=CC3Cl,heptachlor,-6.32,log(mol/L),-6.32,log(mol/L),-
CCOP(=S)(OCC)SC(CCl)N1C(=O)C2=CC=CC=C2C1=O,Dialifor,-6.34,log(mol/L),-6.34,log(mol/L),-
S=P(OCC)(OCC)SC(CCl)N1C(C2=CC=CC=C2C1=O)=O,dialifos,-6.34,log(mol/L),-6.34,log(mol/L),10311-84-9
C=12C=CC=CC1C=C3C(C=CC=C3)=C2,Anthracene,-6.35,log(mol/L),-6.35,log(mol/L),120-12-7
C12=CC3=C(C=C1C=CC=C2)C=CC=C3,Anthracene,-6.35,log(mol/L),-6.35,log(mol/L),-
C1=CC=C2C=C3C=CC=CC3=CC2=C1,Anthracene,-6.35,log(mol/L),-6.35,log(mol/L),-
CCCCCCCCCCCCCCCO,1-Pentadecanol,-6.35,log(mol/L),-6.35,log(mol/L),-
ClC(Cl)=C(C1=CC=C(Cl)C=C1)C2=CC=CC=C2Cl,"o,p?-dde",-6.36,log(mol/L),-6.36,log(mol/L),3424-82-6
ClC(Cl)=C(C1=CC=C(Cl)C=C1)C2=CC=CC=C2Cl,"O,P'-DDE",-6.36,log(mol/L),-6.36,log(mol/L),3424-82-6
ClC1=CC(C2=CC=CC=C2)=CC=C1Cl,"3,4-pcb",-6.39,log(mol/L),-6.39,log(mol/L),2974-92-7
ClC1=CC=C(C=C1Cl)C2=CC=CC=C2,"3,4-pcb",-6.39,log(mol/L),-6.39,log(mol/L),-
ClC1=C(C=CC(=C1)C2=CC=CC=C2)Cl,"3,4-pcb",-6.39,log(mol/L),-6.39,log(mol/L),-
BrC1=CC=C(OC2=CC=C(Br)C=C2)C=C1,"4,4'-diBDE",-6.4,log(mol/L),-6.4,log(mol/L),-
BrC1=CC=C(OC2=CC=C(Br)C=C2)C=C1,"4,4'-Dibromodiphenyl ether; BDE-015",1.3E-4 +- 2.0E-5,g/L,-6.402,log(mol/L),2050-47-7
ClC1=CC=C(Cl)C(C2=CC=CC(Cl)=C2Cl)=C1,"2,2?,3,5?-pcb",-6.47,log(mol/L),-6.47,log(mol/L),41464-39-5
ClC1=CC=C(Cl)C(C2=CC=CC(Cl)=C2Cl)=C1,"2,2',3,5'-PCB",-6.47,log(mol/L),-6.47,log(mol/L),41464-39-5
ClC1=CC=C(Cl)C(=C1)C2=CC=CC(Cl)=C2Cl,"2,2',3,5'-PCB",-6.47,log(mol/L),-6.47,log(mol/L),-
CCCN(CCC)C1=C(C=C(C=C1N(=O)=O)C(C)C)N(=O)=O,Isopropalin,-6.49,log(mol/L),-6.49,log(mol/L),-
CC1=CC=CC(CN2CCN(CC2)C(C3=CC=CC=C3)C4=CC=C(Cl)C=C4)=C1,meclizine,0.322,?M/L,-6.492,log(mol/L),-
OCCC(C(C(F)(C(F)(C(F)(C(F)(C(F)(C(F)(F)F)F)F)F)F)F)(F)F)(F)F,-,-0.83,log(mg/L),-6.497,log(mol/L),678-39-7
ClC1=CC(Cl)=CC=C1C2=CC=C(Cl)C=C2Cl,"2,2?,4,4?-pcb",-6.51,log(mol/L),-6.51,log(mol/L),2437-79-8
ClC(Cl)C(C1=CC=C(Cl)C=C1)C2=CC=CC=C2Cl,"O,P'-DDD",-6.51,log(mol/L),-6.51,log(mol/L),-
ClC(Cl)C(C1=CC=C(Cl)C=C1)C2=CC=CC=C2Cl,"O,P'-DDD",-6.51,log(mol/L),-6.51,log(mol/L),53-19-0
ClC1=C(C=CC(=C1)Cl)C2=C(C=C(C=C2)Cl)Cl,"2,2?,4,4?-PCB",-6.51,log(mol/L),-6.51,log(mol/L),-
ClC1=CC(Cl)=CC=C1C2=CC=C(Cl)C=C2Cl,"2,2',4,4'-pcb",-6.51,log(mol/L),-6.51,log(mol/L),2437-79-8
ClC(Cl)C(C1=CC=C(Cl)C=C1)C2=CC=CC=C2Cl,"o,p?-ddd",-6.51,log(mol/L),-6.51,log(mol/L),53-19-0
O=C1N(COC(=O)CCCCCCC)C(=O)C(N1)(C2=CC=CC=C2)C3=CC=CC=C3,3-Octanoyloxymethylphenytoin,-6.523,log(mol/L),-6.523,log(mol/L),-
O(C1=C(C=C(C=C1Br)Br)Br)CCOC2=C(C=C(C=C2Br)Br)Br,"1,2-Bis(2,4,6-tribromophenoxy)ethane",0.2,mg/L,-6.536,log(mol/L),37853-59-1
ClC1=CC=C(C2=CC=C(Cl)C=C2)C=C1,"4,4?-pcb",-6.56,log(mol/L),-6.56,log(mol/L),2050-68-2
ClC1=CC=C(C2=CC=C(Cl)C=C2)C=C1,"4,4'-PCB",-6.56,log(mol/L),-6.56,log(mol/L),2050-68-2
ClC1=CC=C(C2=CC=C(Cl)C=C2)C=C1,"4,4'-PCB",-6.56,log(mol/L),-6.56,log(mol/L),-
C1CCCCC1[Sn](C2CCCCC2)(C3CCCCC3)N4N=CN=C4,Azocyclotin,0.12,mg/L,-6.561,log(mol/L),41083-11-8
C1CCC(CC1)[Sn](C2CCCCC2)(C3CCCCC3)N4C=NC=N4,-,-0.9208187,log(mg/L),-6.561,log(mol/L),41083-11-8
CC=1C2=C(C=CC=C2)C(=C3C1C=CC=C3)C,"9,10-dimethylanthracene",-6.57,log(mol/L),-6.57,log(mol/L),781-43-1
CC=1C=2C=CC=CC2C(C)=C3C=CC=CC13,"9,10-dimethylanthracene",-6.57,log(mol/L),-6.57,log(mol/L),-
ClC1=CC=C(C(Cl)=C1)C2=CC(Cl)=CC=C2Cl,"2,2',4,5'-PCB",-6.57,log(mol/L),-6.57,log(mol/L),-
CC1=CC2=C(C3=C1C=CC=C3)C=CC4=C2C=CC=C4,6-Methylchrysene,-6.57,log(mol/L),-6.57,log(mol/L),-
CC1=C2C(=C(C3=C1C=CC=C3)C)C=CC=C2,"9,10-dimethylanthracene",-6.57,log(mol/L),-6.57,log(mol/L),-
CC1=CC=2C=3C=CC=CC3C=CC2C=4C=CC=CC14,6-Methylchrysene,-6.57,log(mol/L),-6.57,log(mol/L),-
ClC1=CC=C(Cl)C=C1C2=C(Cl)C=C(Cl)C=C2,"2,2?,4,5?-pcb",-6.57,log(mol/L),-6.57,log(mol/L),41464-40-8
ClC1=C(C=CC(=C1)Cl)C2=C(C=CC(=C2)Cl)Cl,"2,2?,4,5?-PCB",-6.57,log(mol/L),-6.57,log(mol/L),-
ClC1=CC=C(Cl)C=C1C2=C(Cl)C=C(Cl)C=C2,"2,2',4,5'-PCB",-6.57,log(mol/L),-6.57,log(mol/L),41464-40-8
CCN(CCO)S(=O)(=O)C(F)(F)C(F)(F)C(F)(F)C(F)(F)C(F)(F)C(F)(F)C(F)(F)C(F)(F)F,-,-0.82,log(mg/L),-6.577,log(mol/L),1691-99-2
CC1=CC2=C(C3=C1C4=C(C=C3)C=CC=C4)C=CC=C2,5-Methylchrysene,-6.59,log(mol/L),-6.59,log(mol/L),-
C1=CC=CC=2C=3C(C)=CC=4C=CC=CC4C3C=CC12,5-Methylchrysene,-6.59,log(mol/L),-6.59,log(mol/L),-
S=P(OC)(OC)OC1=C(Cl)C=C(I)C(Cl)=C1,iodofenphos,-6.62,log(mol/L),-6.62,log(mol/L),18181-70-9
COP(=S)(OC)OC1=CC(Cl)=C(I)C=C1Cl,iodofenphos,-6.62,log(mol/L),-6.62,log(mol/L),-
ClC(Cl)(Cl)C(C1=CC=C(Cl)C=C1)C2=CC=CC=C2Cl,"O,P'-DDT",-6.62,log(mol/L),-6.62,log(mol/L),789-02-6
ClC(Cl)(Cl)C(C1=CC=C(Cl)C=C1)C2=CC=CC=C2Cl,"o,p?-ddt",-6.62,log(mol/L),-6.62,log(mol/L),789-02-6
O1C2C(OC(=O)C)(C3C(C(O)C2)(C(=O)C(OC(=O)C)C=4C(C(O)(C3OC(=O)C5=CC=CC=C5)CC(OC(=O)C(O)C(NC(=O)C6=CC=CC=C6)C7=CC=CC=C7)C4C)(C)C)C)C1,Paclitaxel,-6.63,log(mol/L),-6.63,log(mol/L),-
C(O)(C1=CC=C(Br)C=C1)(C2=CC=C(Br)C=C2)C(=O)OC(C)C,"ISOPROPYL 4,4'DIBROMOBENZILATE",0.1,mg/L,-6.632,log(mol/L),18181-80-1
C1(C(=O)OCCCCCC(C)C)=C(C(=O)OCCCCCC(C)C)C=CC=C1,diisooctyl phthalate,-6.637,log(mol/L),-6.637,log(mol/L),-
C1C2=CC=CC=C2C3=CC=C4C=CC=CC4=C13,benzo(a)fluorene,-6.68,log(mol/L),-6.68,log(mol/L),-
C=12C=3C=CC=CC3C=CC1C4=CC=CC=C4C2,benzo(a)fluorene,-6.68,log(mol/L),-6.68,log(mol/L),238-84-6
C1C2=C(C=CC3=C2C=CC=C3)C4=C1C=CC=C4,benzo(a)fluorene,-6.68,log(mol/L),-6.68,log(mol/L),-
O=P(OC1=CC=C(O)C=C1C)(OC2=CC(O)=CC=C2C)OC3=C(O)C=CC=C3C,tricresyl phosphate,-6.7,log(mol/L),-6.7,log(mol/L),1330-78-5
CC12C3CCC4(C(C3CCC1CCCC2)CCC4=O)C,androstane-17-one,-6.7,log(mol/L),-6.7,log(mol/L),36378-49-1
O=C1C2(C(C3CCC4C(C3CC2)(C)CCCC4)CC1)C,androstane-17-one,-6.7,log(mol/L),-6.7,log(mol/L),36378-49-1
O=P(OC1=C(C)C=CC=C1)(OC2=C(C)C=CC=C2)OC3=C(C)C=CC=C3,tricresyl phosphate,-6.7,log(mol/L),-6.7,log(mol/L),1330-78-5
O=C(OC1=C(C=C(C#N)C=C1Br)Br)CCCCCCC,BROMOXYNIL OCTANOATE,0.08,mg/L,-6.702,log(mol/L),1689-99-2
N(=O)(=O)C1=C(C(N(=O)=O)=C(C(C)=C1C)C)C(C)(C)C,FRA058; Musk tibetene,0.052,mg/L,-6.709,log(mol/L),145-39-1
C1=CC(=C(C=C1Br)Br)OC2=C(C=C(C=C2)Br)Br,"2,2',4,4'-Tetrabromodiphenyl ether; BDE-047",1.95E-4,mmol/L,-6.71,log(mol/L),5436-43-1