SMILES,NAME,Water solubility,UNIT {Water solubility},Solubility_log(mol/L),UNIT {Water solubility}.1,CASRN,MolW(Da),NumHAcceptors,NumHDonors,LogP,Lipinski_rule,Solubility(mol/L)
NC(=O)c1ccccc1,benzamide,-0.96,log(mol/L),-0.96,log(mol/L),55-21-0,121.13899999999995,1,1,0.7855000000000001,1,0.1096478196143185
O=Cc1ccc(O)cc1,p-hydroxybenzaldehyde,-0.96,log(mol/L),-0.96,log(mol/L),123-08-0,122.12299999999996,2,1,1.2047,1,0.1096478196143185
NC(=O)c1ccccc1,benzamide,-0.96,log(mol/L),-0.96,log(mol/L),-,121.13899999999995,1,1,0.7855000000000001,1,0.1096478196143185
CCOC(=O)CCC(=O)OCC,diethyl succinate,-0.96,log(mol/L),-0.96,log(mol/L),123-25-1,174.19599999999997,4,0,0.8927999999999999,1,0.1096478196143185
Nc1nc(=O)[nH]cc1F,Flucytosine,-0.96,log(mol/L),-0.96,log(mol/L),-,129.09399999999997,3,2,-0.5088000000000001,1,0.1096478196143185
Cn1c(=O)c2c(ncn2C)n(C)c1=O,Caffeine,-0.97,log(mol/L),-0.97,log(mol/L),58-08-2,194.194,6,0,-1.0293,1,0.10715193052376065
Nc1nc(=O)[nH]cc1F,Flucytosine,-0.972,log(mol/L),-0.972,log(mol/L),-,129.09399999999997,3,2,-0.5088000000000001,1,0.10665961212302578
CC(=O)Nc1ccc(N)cc1,4-aminoacetanilide,-0.98,log(mol/L),-0.98,log(mol/L),122-80-5,150.181,2,2,1.2271999999999998,1,0.10471285480508996
CCCC(C)(O)CC,3-methyl-3-hexanol,-0.98,log(mol/L),-0.98,log(mol/L),-,116.20399999999998,1,1,1.9475,1,0.10471285480508996
COc1ccccc1OCC(O)COC(N)=O,Methocarbamol,-0.985,log(mol/L),-0.985,log(mol/L),-,241.24299999999994,5,2,0.5302000000000002,1,0.10351421666793438
O=C1C=CC(=O)C=C1,"2,5-cyclohexadiene-1,4-dione",-0.99,log(mol/L),-0.99,log(mol/L),106-51-4,108.09599999999999,2,0,0.25059999999999993,1,0.10232929922807542
COc1ccccc1OCC(O)COC(N)=O,Methocarbamol,-0.99,log(mol/L),-0.99,log(mol/L),-,241.24299999999994,5,2,0.5302000000000002,1,0.10232929922807542
CCCCOC,methyl butyl ether,-0.99,log(mol/L),-0.99,log(mol/L),-,88.14999999999999,1,0,1.4329,1,0.10232929922807542
CCCCOC,methyl butyl ether,-0.99,log(mol/L),-0.99,log(mol/L),628-28-4,88.14999999999999,1,0,1.4329,1,0.10232929922807542
O=[N+]([O-])c1ccc(O)c(Br)c1,2-BROMO-4-NITROPHENOL,22000.0,mg/L,-0.996,log(mol/L),5847-59-6,218.00599999999997,3,1,2.0629,1,0.10092528860766845
N#Cc1ccccc1,benzonitrile,-1.0,log(mol/L),-1.0,log(mol/L),100-47-0,103.12399999999997,1,0,1.5582799999999999,1,0.1
CI,iodomethane,-1.0,log(mol/L),-1.0,log(mol/L),74-88-4,141.939,0,0,1.0512000000000001,1,0.1
CCCC(C)(O)CC,3-methyl-3-hexanol,-1.0,log(mol/L),-1.0,log(mol/L),597-96-6,116.20399999999998,1,1,1.9475,1,0.1
N#Cc1ccccc1,benzonitrile,-1.0,log(mol/L),-1.0,log(mol/L),-,103.12399999999997,1,0,1.5582799999999999,1,0.1
CI,iodomethane,-1.0,log(mol/L),-1.0,log(mol/L),-,141.939,0,0,1.0512000000000001,1,0.1
O=[N+]([O-])c1cccc(O)c1,m-Nitrophenol,-1.01,log(mol/L),-1.01,log(mol/L),-,139.10999999999999,3,1,1.3004,1,0.09772372209558107
CC(C)COC=O,isobutyl formate,-1.01,log(mol/L),-1.01,log(mol/L),542-55-2,102.13299999999998,2,0,0.8154,1,0.09772372209558107
CC(C)COC=O,isobutyl formate,-1.01,log(mol/L),-1.01,log(mol/L),-,102.13299999999998,2,0,0.8154,1,0.09772372209558107
CC(C)(C)NCC(O)COc1cccc2c1CC(O)C(O)C2,Nadolol,-1.01,log(mol/L),-1.01,log(mol/L),-,309.406,5,4,0.6347999999999998,1,0.09772372209558107
O=[N+]([O-])c1cccc(O)c1,3-nitrophenol,-1.01,log(mol/L),-1.01,log(mol/L),554-84-7,139.10999999999999,3,1,1.3004,1,0.09772372209558107
Nc1nc2[nH]nnc2c(=O)[nH]1,-,4.167317,log(mg/L),-1.015,log(mol/L),134-58-7,152.11700000000002,5,3,-1.3766000000000003,1,0.09660508789898135
CC(=O)Nc1ccc(O)cc1,4-hydroxyacetanilide,-1.03,log(mol/L),-1.03,log(mol/L),103-90-2,151.165,2,2,1.3505999999999998,1,0.0933254300796991
CC(=O)Nc1ccc(O)cc1,p-Hydroxyacetanilide,-1.03,log(mol/L),-1.03,log(mol/L),-,151.165,2,2,1.3505999999999998,1,0.0933254300796991
CC(=O)Nc1ccc(O)cc1,Acetaminophen,-1.03,log(mol/L),-1.03,log(mol/L),-,151.165,2,2,1.3505999999999998,1,0.0933254300796991
O=c1[nH]cc(F)c(=O)[nH]1,Fluorouracil,-1.03,log(mol/L),-1.03,log(mol/L),-,130.078,2,2,-0.7977000000000001,1,0.0933254300796991
Cc1cn(C2CC(N=[N+]=[N-])C(CO)O2)c(=O)[nH]c1=O,Zidovudine,-1.03,log(mol/L),-1.03,log(mol/L),-,267.245,6,2,-0.19628000000000012,1,0.0933254300796991
c1ccc2c(c1)CCN2,indoline,-1.04,log(mol/L),-1.04,log(mol/L),496-15-1,119.16699999999999,1,1,1.6545999999999996,1,0.09120108393559097
CCC(C)(C)CO,"2,2-dimethyl-1-butanol",-1.04,log(mol/L),-1.04,log(mol/L),1185-33-7,102.17699999999998,1,1,1.4149,1,0.09120108393559097
c1ccc2c(c1)CCN2,indoline,-1.04,log(mol/L),-1.04,log(mol/L),-,119.16699999999999,1,1,1.6545999999999996,1,0.09120108393559097
CCC(C)(C)CO,"2,2-dimethyl-1-butanol",-1.04,log(mol/L),-1.04,log(mol/L),-,102.17699999999998,1,1,1.4149,1,0.09120108393559097
CCCCCC(=O)O,caproic acid,-1.06,log(mol/L),-1.06,log(mol/L),142-62-1,116.15999999999998,1,1,1.6513,1,0.08709635899560805
Oc1ccccc1Cl,2-chlorophenol,-1.06,log(mol/L),-1.06,log(mol/L),95-57-8,128.558,1,1,2.0456000000000003,1,0.08709635899560805
CC1=CC(=O)CC(C)(C)C1,isophorone,-1.06,log(mol/L),-1.06,log(mol/L),78-59-1,138.20999999999998,1,0,2.3218000000000005,1,0.08709635899560805
ClCCCl,"1,2-dichloroethane",-1.06,log(mol/L),-1.06,log(mol/L),107-06-2,98.96000000000001,0,0,1.464,1,0.08709635899560805
CC1=CC(=O)CC(C)(C)C1,isophorone,-1.06,log(mol/L),-1.06,log(mol/L),-,138.20999999999998,1,0,2.3218000000000005,1,0.08709635899560805
Oc1ccccc1Cl,2-chlorophenol,-1.06,log(mol/L),-1.06,log(mol/L),-,128.558,1,1,2.0456000000000003,1,0.08709635899560805
ClCCCl,"1,2-dichloroethane",-1.06,log(mol/L),-1.06,log(mol/L),-,98.96000000000001,0,0,1.464,1,0.08709635899560805
CCCl,Chloroethane,-1.06,log(mol/L),-1.06,log(mol/L),-,64.515,0,0,1.2451,1,0.08709635899560805
CC(=O)Nc1ccc(O)cc1,Acetaminophen,86329.6,?M/L,-1.064,log(mol/L),-,151.165,2,2,1.3505999999999998,1,0.08629785477669702
O=c1[nH]cc(F)c(=O)[nH]1,5-fluorouracil,-1.07,log(mol/L),-1.07,log(mol/L),51-21-8,130.078,2,2,-0.7977000000000001,1,0.08511380382023763
O=c1[nH]cc(F)c(=O)[nH]1,5-fluorouracil,-1.077,log(mol/L),-1.077,log(mol/L),-,130.078,2,2,-0.7977000000000001,1,0.08375292821268826
CCCCC(C)(C)O,2-methyl-2-hexanol,-1.08,log(mol/L),-1.08,log(mol/L),625-23-0,116.20399999999998,1,1,1.9475000000000002,1,0.08317637711026708
C=CC,Propylene,-1.08,log(mol/L),-1.08,log(mol/L),-,42.080999999999996,0,0,1.1923,1,0.08317637711026708
CCCCC(C)(C)O,2-methyl-2-hexanol,-1.08,log(mol/L),-1.08,log(mol/L),-,116.20399999999998,1,1,1.9475000000000002,1,0.08317637711026708
Oc1ccc(Br)cc1,4-bromophenol,-1.09,log(mol/L),-1.09,log(mol/L),-,173.00900000000001,1,1,2.1547,1,0.0812830516164099
CCBr,bromoethane,-1.09,log(mol/L),-1.09,log(mol/L),74-96-4,108.966,0,0,1.4012,1,0.0812830516164099
Oc1ccc(Br)cc1,4-bromophenol,-1.09,log(mol/L),-1.09,log(mol/L),106-41-2,173.00900000000001,1,1,2.1547,1,0.0812830516164099
CCBr,bromoethane,-1.09,log(mol/L),-1.09,log(mol/L),-,108.966,0,0,1.4012,1,0.0812830516164099
Oc1ccc(Br)cc1,p-Bromophenol,14000.0,mg/L,-1.092,log(mol/L),106-41-2,173.00900000000001,1,1,2.1547,1,0.08090958991783821
CCCCCCN,hexylamine,-1.1,log(mol/L),-1.1,log(mol/L),111-26-2,101.19300000000001,1,1,1.5253999999999999,1,0.07943282347242814
CC(C)OC(C)C,diisopropyl ether,-1.1,log(mol/L),-1.1,log(mol/L),108-20-3,102.17699999999999,1,0,1.8197999999999999,1,0.07943282347242814
O=C(O)COc1ccccc1,phenoxyacetic acid,-1.1,log(mol/L),-1.1,log(mol/L),122-59-8,152.149,2,1,1.1500000000000001,1,0.07943282347242814
CC(C)OC(C)C,diisopropyl ether,-1.1,log(mol/L),-1.1,log(mol/L),-,102.17699999999999,1,0,1.8197999999999999,1,0.07943282347242814
CNC(C)Cc1ccccc1,Phenpromethamine,-1.1,log(mol/L),-1.1,log(mol/L),-,149.237,1,1,1.837,1,0.07943282347242814
CCCC(C)CO,2-Methylpentanol,-1.11,log(mol/L),-1.11,log(mol/L),-,102.17699999999999,1,1,1.4149,1,0.07762471166286916
COc1ncnc2nccnc12,2-methoxypteridine,-1.11,log(mol/L),-1.11,log(mol/L),-,162.15200000000002,5,0,0.4283999999999998,1,0.07762471166286916
CCCC(C)CO,2-methyl-1-pentanol,-1.11,log(mol/L),-1.11,log(mol/L),105-30-6,102.17699999999999,1,1,1.4149,1,0.07762471166286916
COc1ncc2nccnc2n1,4-methoxypteridine,-1.11,log(mol/L),-1.11,log(mol/L),-,162.152,5,0,0.42839999999999984,1,0.07762471166286916
COc1ncc2nccnc2n1,2-methoxypteridine,-1.11,log(mol/L),-1.11,log(mol/L),-,162.152,5,0,0.42839999999999984,1,0.07762471166286916
COc1ncnc2nccnc12,4-methoxypteridine,-1.11,log(mol/L),-1.11,log(mol/L),30564-38-6,162.15200000000002,5,0,0.4283999999999998,1,0.07762471166286916
FC(F)(F)CCl,"1,1,1-TRIFLUORO-2-CHLOROETHANE",9200.0,mg/L,-1.11,log(mol/L),75-88-7,118.48500000000001,0,0,1.7874999999999999,1,0.07762471166286916
COc1ncc2nccnc2n1,2-methoxypteridine,-1.11,log(mol/L),-1.11,log(mol/L),102170-44-5,162.152,5,0,0.42839999999999984,1,0.07762471166286916
COc1ncnc2nccnc12,4-methoxypteridine,-1.11,log(mol/L),-1.11,log(mol/L),-,162.15200000000002,5,0,0.4283999999999998,1,0.07762471166286916
NCCc1ccc(O)cc1,tyramine,-1.12,log(mol/L),-1.12,log(mol/L),51-67-2,137.18199999999996,2,2,0.8934,1,0.07585775750291836
ClCCOCCCl,bis-(2-chloroethyl) ether,-1.12,log(mol/L),-1.12,log(mol/L),111-44-4,143.013,1,0,1.4806,1,0.07585775750291836
NCCc1ccc(O)cc1,tyramine,-1.12,log(mol/L),-1.12,log(mol/L),-,137.18199999999996,2,2,0.8934,1,0.07585775750291836
CC1CC(C)C(=O)C(C(O)CC2CC(=O)NC(=O)C2)C1,cycloheximide,-1.13,log(mol/L),-1.13,log(mol/L),66-81-9,281.35200000000003,4,2,1.0415,1,0.07413102413009177
CC1CC(C)C(=O)C(C(O)CC2CC(=O)NC(=O)C2)C1,cycloheximide,-1.13,log(mol/L),-1.13,log(mol/L),-,281.35200000000003,4,2,1.0415,1,0.07413102413009177
COc1cnc2ncncc2n1,6-methoxypteridine,-1.139,log(mol/L),-1.139,log(mol/L),-,162.15200000000002,5,0,0.42839999999999984,1,0.07261059574351547
CC(C)CCCO,4-Methylpentanol,-1.14,log(mol/L),-1.14,log(mol/L),-,102.17699999999999,1,1,1.4149,1,0.07244359600749903
Nc1cc[nH]c(=O)n1,cytosine,-1.14,log(mol/L),-1.14,log(mol/L),71-30-7,111.104,3,2,-0.6479000000000001,1,0.07244359600749903
CC(C)CCCO,4-methyl-1-pentanol,-1.14,log(mol/L),-1.14,log(mol/L),626-89-1,102.17699999999999,1,1,1.4149,1,0.07244359600749903
CCC(O)C(C)(C)C,"2,2-dimethyl-3-pentanol",-1.15,log(mol/L),-1.15,log(mol/L),3970-62-5,116.204,1,1,1.8034,1,0.0707945784384138
Nc1cc[nH]c(=O)n1,cytosine,-1.155,log(mol/L),-1.155,log(mol/L),-,111.104,3,2,-0.6479000000000001,1,0.06998419960022735
c1ccc2ocnc2c1,benzoxazole,-1.16,log(mol/L),-1.16,log(mol/L),-,119.12299999999998,2,0,1.8277999999999999,1,0.06918309709189366
O=S(CCCl)CCCl,bis-(2-chloroethyl)-sulfoxide,-1.16,log(mol/L),-1.16,log(mol/L),-,175.08,1,0,1.2127000000000001,1,0.06918309709189366
c1ccc2ocnc2c1,benzoxazole,-1.16,log(mol/L),-1.16,log(mol/L),273-53-0,119.12299999999998,2,0,1.8277999999999999,1,0.06918309709189366
C=CCC1(C)C(=O)NC(=O)NC1=O,5-Allyl-5-methylbarbital,-1.16,log(mol/L),-1.16,log(mol/L),-,182.17899999999997,3,2,-0.06520000000000004,1,0.06918309709189366
O=C(O)c1cc(O)c(O)c(O)c1,gallic acid,-1.16,log(mol/L),-1.16,log(mol/L),149-91-7,170.11999999999998,4,4,0.5015999999999998,1,0.06918309709189366
CCCS(=O)CCCN(CC)CC(O)COc1ccc(C#N)cc1,Almokalant,-1.17,log(mol/L),-1.17,log(mol/L),-,352.50000000000006,5,1,2.16868,1,0.06760829753919818
BrCBr,dibromomethane,-1.17,log(mol/L),-1.17,log(mol/L),-,173.83499999999998,0,0,1.7337,1,0.06760829753919818
CCC(CC)CO,2-ethyl-1-butanol,-1.17,log(mol/L),-1.17,log(mol/L),-,102.17699999999999,1,1,1.4149,1,0.06760829753919818
ClC(Cl)Cl,Trichloromethane,-1.17,log(mol/L),-1.17,log(mol/L),-,119.37800000000001,0,0,1.9864,1,0.06760829753919818
ClC(Cl)Cl,Chloroform,-1.17,log(mol/L),-1.17,log(mol/L),67-66-3,119.37800000000001,0,0,1.9864,1,0.06760829753919818
CCC(CC)CO,2-ethyl-1-butanol,-1.17,log(mol/L),-1.17,log(mol/L),97-95-0,102.17699999999999,1,1,1.4149,1,0.06760829753919818
BrCBr,dibromomethane,-1.17,log(mol/L),-1.17,log(mol/L),74-95-3,173.83499999999998,0,0,1.7337,1,0.06760829753919818
Cc1ccc(O)c(C)c1,"2,4-xylenol",-1.19,log(mol/L),-1.19,log(mol/L),105-67-9,122.16699999999999,1,1,2.0090399999999997,1,0.06456542290346556
Cc1ccc(O)c(C)c1,"2,4-Dimethylphenol",-1.19,log(mol/L),-1.19,log(mol/L),-,122.16699999999999,1,1,2.0090399999999997,1,0.06456542290346556
Cc1ncc([N+](=O)[O-])n1CCO,Metronidazole,-1.19,log(mol/L),-1.19,log(mol/L),-,171.15599999999998,5,1,0.09201999999999994,1,0.06456542290346556
O=Cc1ccccc1,benzaldehyde,-1.19,log(mol/L),-1.19,log(mol/L),-,106.12399999999997,1,0,1.4990999999999999,1,0.06456542290346556
O=Cc1ccccc1,benzaldehyde,-1.19,log(mol/L),-1.19,log(mol/L),100-52-7,106.12399999999997,1,0,1.4990999999999999,1,0.06456542290346556
Cc1ccc(CO)cc1,p-methylbenzyl alcohol,-1.2,log(mol/L),-1.2,log(mol/L),589-18-4,122.16699999999999,1,1,1.48732,1,0.06309573444801933
COC(=O)C1C2C=CC(C2)C1C(=O)OC,dimethyl carbate,-1.2,log(mol/L),-1.2,log(mol/L),5826-73-3,210.22899999999996,4,0,0.7706999999999999,1,0.06309573444801933
COCCc1ccc(OCC(O)CNC(C)C)cc1,metoprolol,-1.2,log(mol/L),-1.2,log(mol/L),-,267.36899999999997,4,2,1.6132,1,0.06309573444801933
Cc1cc(O)c2ccccc2n1,4-hydroxy-2-methylquinoline,-1.2,log(mol/L),-1.2,log(mol/L),607-67-0,159.188,2,1,2.2488199999999994,1,0.06309573444801933
Cc1ccc(N)cc1,4-methylaniline,-1.21,log(mol/L),-1.21,log(mol/L),106-49-0,107.156,1,1,1.5772199999999998,1,0.06165950018614822
CC1=C(C(=O)O)N2C(=O)C(NC(=O)C(N)C3=CCC=CC3)C2SC1,Cephradine,-1.21,log(mol/L),-1.21,log(mol/L),-,349.4120000000001,5,3,0.34860000000000113,1,0.06165950018614822
Cc1ccc(N)cc1,p-Methylaniline,-1.21,log(mol/L),-1.21,log(mol/L),-,107.156,1,1,1.5772199999999998,1,0.06165950018614822
C=CC(=O)OCC(C)C,isobutyl acrylate,-1.21,log(mol/L),-1.21,log(mol/L),106-63-8,128.17099999999996,2,0,1.3716,1,0.06165950018614822
CC(=O)OCC(C)C,Isobutyl acetate,-1.21,log(mol/L),-1.21,log(mol/L),-,116.16,2,0,1.2055,1,0.06165950018614822
Cc1ncc([N+](=O)[O-])n1CCO,Metronidazole,-1.22,log(mol/L),-1.22,log(mol/L),-,171.15599999999998,5,1,0.09201999999999994,1,0.06025595860743578
CC(C)C(O)C(C)C,"2,4-dimethyl-3-pentanol",-1.22,log(mol/L),-1.22,log(mol/L),600-36-2,116.20399999999998,1,1,1.6593,1,0.06025595860743578
CC(C)(C)NCC(O)c1ccc(O)c(CO)c1,salbutamol,-1.22,log(mol/L),-1.22,log(mol/L),-,239.315,4,4,1.3059999999999998,1,0.06025595860743578
CC(C)C(O)C(C)C,"2,4-dimethyl-3-pentanol",-1.22,log(mol/L),-1.22,log(mol/L),-,116.20399999999998,1,1,1.6593,1,0.06025595860743578
CC(C)(C)NCC(O)c1ccc(O)c(CO)c1,salbutamol,-1.22,log(mol/L),-1.22,log(mol/L),18559-94-9,239.315,4,4,1.3059999999999998,1,0.06025595860743578
Cc1ncc([N+](=O)[O-])n1CCO,Metronidazole,60058.7,?M/L,-1.221,log(mol/L),-,171.15599999999998,5,1,0.09201999999999994,1,0.06011737374832779
CCC1(C)C(=O)NC(=O)NC1=O,5-Methyl-5-ethylbarbituric acid,-1.228,log(mol/L),-1.228,log(mol/L),-,170.16799999999998,3,2,-0.23129999999999995,1,0.0591561634175474
CC(=O)NS(=O)(=O)c1ccc(N)cc1,Sulfacetamide,-1.23,log(mol/L),-1.23,log(mol/L),-,214.246,4,2,0.0935999999999998,1,0.0588843655355589
CC(=O)NS(=O)(=O)c1ccc(N)cc1,sulfanilacetamide,-1.23,log(mol/L),-1.23,log(mol/L),144-80-9,214.246,4,2,0.0935999999999998,1,0.0588843655355589
OCC1OC(n2cnc3c(O)ncnc32)C(O)C1O,inosine,-1.23,log(mol/L),-1.23,log(mol/L),-,268.22900000000004,9,4,-1.8566000000000003,1,0.0588843655355589
OCC1OC(n2cnc3c(O)ncnc32)C(O)C1O,inosine,-1.23,log(mol/L),-1.23,log(mol/L),58-63-9,268.22900000000004,9,4,-1.8566000000000003,1,0.0588843655355589
NC(Cc1c[nH]c2ccccc12)C(=O)O,l-tryptophan,-1.23,log(mol/L),-1.23,log(mol/L),73-22-3,204.22899999999998,2,3,1.1223000000000003,1,0.0588843655355589
O=c1[nH]cnc2c1ncn2C1OC(CO)C(O)C1O,inosine,-1.23,log(mol/L),-1.23,log(mol/L),-,268.229,8,4,-2.2689,1,0.0588843655355589
CCCCCCO,1-hexanol,-1.24,log(mol/L),-1.24,log(mol/L),111-27-3,102.17699999999999,1,1,1.559,1,0.057543993733715694
COC(=O)c1cc(O)c(O)c(O)c1,methyl gallate,-1.24,log(mol/L),-1.24,log(mol/L),99-24-1,184.147,5,3,0.5899999999999996,1,0.057543993733715694
COC(=O)c1cc(O)c(O)c(O)c1,methyl gallate,-1.24,log(mol/L),-1.24,log(mol/L),-,184.147,5,3,0.5899999999999996,1,0.057543993733715694
C#CCC,1-Butyne,-1.24,log(mol/L),-1.24,log(mol/L),-,54.092,0,0,1.0295999999999998,1,0.057543993733715694
CCCCOC(C)=O,Butyl acetate,-1.24,log(mol/L),-1.24,log(mol/L),123-86-4,116.15999999999998,2,0,1.3496000000000001,1,0.057543993733715694
CCCCCCO,1-hexanol,-1.24,log(mol/L),-1.24,log(mol/L),-,102.17699999999999,1,1,1.559,1,0.057543993733715694
Oc1ccc(Cl)c(Cl)c1,"3,4-Dichlorophenol",-1.25,log(mol/L),-1.25,log(mol/L),-,163.00300000000001,1,1,2.6990000000000007,1,0.05623413251903491
O=C1NC(=O)C(=O)C(=O)N1,alloxan,-1.25,log(mol/L),-1.25,log(mol/L),50-71-5,142.07,4,2,-2.0785,1,0.05623413251903491
O=C1NC(=O)C(=O)C(=O)N1,alloxan,-1.25,log(mol/L),-1.25,log(mol/L),-,142.07,4,2,-2.0785,1,0.05623413251903491
Cc1ncc([N+](=O)[O-])n1CCO,Metronidazole,-1.26,log(mol/L),-1.26,log(mol/L),443-48-1,171.15599999999998,5,1,0.09201999999999994,1,0.054954087385762455
Cc1cc(=O)[nH]c(=O)[nH]1,6-methyluracil,-1.26,log(mol/L),-1.26,log(mol/L),626-48-2,126.115,2,2,-0.6283800000000002,1,0.054954087385762455
Cc1ncc([N+](=O)[O-])n1CCO,Metranidazole,-1.26,log(mol/L),-1.26,log(mol/L),-,171.15599999999998,5,1,0.09201999999999994,1,0.054954087385762455
CC1COc2c(N3CCN(C)CC3)c(F)cc3c(=O)c(C(=O)O)cn1c23,Ofloxacin,54262.5,?M/L,-1.266,log(mol/L),-,361.37300000000005,6,1,1.5439999999999998,1,0.05420008904016239
CCC(C)(O)C(C)(C)C,"2,2,3-trimethyl-3-pentanol",-1.27,log(mol/L),-1.27,log(mol/L),-,130.23099999999997,1,1,2.1935000000000002,1,0.05370317963702527
CCCC(=O)OCC,ethyl butyrate,-1.28,log(mol/L),-1.28,log(mol/L),105-54-4,116.15999999999998,2,0,1.3496000000000001,1,0.05248074602497726
CC(=O)c1cccc(N)c1,m-aminoacetophenone,-1.28,log(mol/L),-1.28,log(mol/L),99-03-6,135.166,2,1,1.4714,1,0.05248074602497726
CC(=O)c1ccccc1,Acetophenone,-1.28,log(mol/L),-1.28,log(mol/L),-,120.15099999999995,1,0,1.8892,1,0.05248074602497726
Cc1cc(N)nc(C)n1,"2,6-dimethyl-4-pyrimidinamine",-1.28,log(mol/L),-1.28,log(mol/L),461-98-3,123.15900000000002,3,1,0.6756399999999999,1,0.05248074602497726
CCCCCOC(=O)CC,ethyl butyrate,-1.28,log(mol/L),-1.28,log(mol/L),-,144.21399999999997,2,0,2.1298000000000004,1,0.05248074602497726
CC(=O)c1ccccc1,Acetophenone,-1.28,log(mol/L),-1.28,log(mol/L),98-86-2,120.15099999999995,1,0,1.8892,1,0.05248074602497726
CNc1ccccc1,N-Methylaniline,-1.28,log(mol/L),-1.28,log(mol/L),100-61-8,107.15599999999998,1,1,1.7283,1,0.05248074602497726
CNc1ccccc1,N-Methylaniline,-1.28,log(mol/L),-1.28,log(mol/L),-,107.15599999999998,1,1,1.7283,1,0.05248074602497726
Cc1cccc(C)c1O,"2,6-Dimethylphenol",-1.29,log(mol/L),-1.29,log(mol/L),-,122.16699999999999,1,1,2.00904,1,0.05128613839913648
CC(Cl)Cl,"1,1-dichloroethane",-1.29,log(mol/L),-1.29,log(mol/L),75-34-3,98.96000000000001,0,0,1.81,1,0.05128613839913648
OC1CCCCCCC1,Cyclooctanol,-1.29,log(mol/L),-1.29,log(mol/L),-,128.215,1,1,2.0915999999999997,1,0.05128613839913648
CC(Cl)Cl,"1,1-dichloroethane",-1.29,log(mol/L),-1.29,log(mol/L),-,98.96000000000001,0,0,1.81,1,0.05128613839913648
CC(C)NCC(O)COc1ccc(CC(N)=O)cc1,atenolol,-1.3,log(mol/L),-1.3,log(mol/L),-,266.34099999999995,4,3,0.45210000000000006,1,0.05011872336272722
COc1ccc(NC(C)=O)cc1,4-methoxyacetanilide,-1.3,log(mol/L),-1.3,log(mol/L),51-66-1,165.192,2,1,1.6535999999999997,1,0.05011872336272722
CC(C)C(=O)C(C)C,"2,4-Dimethyl-3-pentanone",-1.3,log(mol/L),-1.3,log(mol/L),-,114.18799999999997,1,0,1.8675,1,0.05011872336272722
CCCC(=O)CCC,4-heptanone,-1.3,log(mol/L),-1.3,log(mol/L),-,114.18799999999999,1,0,2.1557000000000004,1,0.05011872336272722
ClC=CCl,"1,2-dichloroethylene",-1.3,log(mol/L),-1.3,log(mol/L),156-59-2,96.94400000000002,0,0,1.9352,1,0.05011872336272722
CCCC(=O)CCC,4-heptanone,-1.3,log(mol/L),-1.3,log(mol/L),123-19-3,114.18799999999999,1,0,2.1557000000000004,1,0.05011872336272722
c1ccc2ncccc2c1,Quinoline,-1.3,log(mol/L),-1.3,log(mol/L),-,129.16199999999998,1,0,2.2348,1,0.05011872336272722
c1ccc2ncccc2c1,Quinoline,-1.3,log(mol/L),-1.3,log(mol/L),91-22-5,129.16199999999998,1,0,2.2348,1,0.05011872336272722
CCCCCC=O,Caproaldehyde,-1.3,log(mol/L),-1.3,log(mol/L),-,100.16099999999999,1,0,1.7656,1,0.05011872336272722
ClC=CCl,"cis 1,2-Dichloroethylene",-1.3,log(mol/L),-1.3,log(mol/L),-,96.94400000000002,0,0,1.9352,1,0.05011872336272722
CCCCCC=O,hexanal,-1.3,log(mol/L),-1.3,log(mol/L),66-25-1,100.16099999999999,1,0,1.7656,1,0.05011872336272722
Oc1cccc(Cl)c1Cl,"2,3-Dichlorophenol",-1.3,log(mol/L),-1.3,log(mol/L),-,163.003,1,1,2.699,1,0.05011872336272722