SMILES,NAME,Water solubility,UNIT {Water solubility},Solubility_log(mol/L),UNIT {Water solubility}.1,CASRN
O=C(NO)C(C1=CC=C(CC(C)C)C=C1)C,ibuproxam,-3.04,log(mol/L),-3.04,log(mol/L),53648-05-8
FC(F)(Cl)C(F)(Cl)Cl,"1,1,2-trichlorotrifluoroethane",-3.04,log(mol/L),-3.04,log(mol/L),-
CC(C)NC1=NC(NCC)=NC(SC)=N1,ametryn,-3.04,log(mol/L),-3.04,log(mol/L),834-12-8
S1(=O)(=O)NCNC2=C1C=C(S(=O)(=O)N)C(=C2)C(F)(F)F,Hydroflumethiazide,-3.04,log(mol/L),-3.04,log(mol/L),-
C12=CC=CC=C1CCC2,indane,-3.04,log(mol/L),-3.04,log(mol/L),496-11-7
ClC(F)(F)C(Cl)(Cl)F,"1,1,2-trichlorotrifluoroethane",-3.04,log(mol/L),-3.04,log(mol/L),76-13-1
C12=CC=CC=C1CCC2,Indan,-3.04,log(mol/L),-3.04,log(mol/L),-
ClC1=CC(Cl)=CC=C1,"1,3-Dichlorobenzene",-3.04,log(mol/L),-3.04,log(mol/L),541-73-1
CCNC1=NC(NC(C)C)=NC(SC)=N1,ametryn,-3.04,log(mol/L),-3.04,log(mol/L),-
C1CC2=C(C1)C=CC=C2,indane,-3.04,log(mol/L),-3.04,log(mol/L),-
FC(F)(C(F)(Cl)Cl)Cl,"1,1,2-trichlorotrifluoroethane",170.0,mg/L,-3.042,log(mol/L),76-13-1
O1C2=CC(C)=CC=C2N(C)C(=O)C3=CC(N)=CN=C13,-,-3.043,log(mol/L),-3.043,log(mol/L),-
ClC1=CC=CC=C1Cl,"1,2-Dichlorobenzene",-3.05,log(mol/L),-3.05,log(mol/L),-
C1=CC=CC=C1S(=O)(=O)NC(=O)NCCCC,phenbutamide,-3.05,log(mol/L),-3.05,log(mol/L),3149-00-6
O=S(C1=CC=CC=C1)(NC(NCCCC)=O)=O,phenbutamide,-3.05,log(mol/L),-3.05,log(mol/L),3149-00-6
ClC1=C(Cl)C=CC=C1,"1,2-Dichlorobenzene",-3.05,log(mol/L),-3.05,log(mol/L),95-50-1
C1=CC=CC=C1S(=O)(=O)NC(=O)NCCCC,phenbutamide,-3.05,log(mol/L),-3.05,log(mol/L),-
O=S1(C2=C(C=C(Cl)C(S(N)(=O)=O)=C2)N=CN1)=O,Chlorothiazide,-3.05,log(mol/L),-3.05,log(mol/L),58-94-6
NS(=O)(=O)C1=CC2=C(N=CNS2(=O)=O)C=C1Cl,Chlorothiazide,-3.05,log(mol/L),-3.05,log(mol/L),-
ClC1=CC2=C(C=C1S(=O)(=O)N)S(NC=N2)(=O)=O,Chlorothiazide,-3.05,log(mol/L),-3.05,log(mol/L),-
O=C1NC(=O)C2(CCCCC2)C(=O)N1,Cyclohexyl-5-spirobarbituric acid,-3.06,log(mol/L),-3.06,log(mol/L),-
C1CNCCN1C2=CC=3N(CC)C=C(C(=O)O)C(=O)C3C=C2F,Norfloxacin,-3.06,log(mol/L),-3.06,log(mol/L),-
BrCCCCC,1-bromopentane,-3.07,log(mol/L),-3.07,log(mol/L),110-53-2
OC(C=1C=2C=CC=CC2N=CC1)C3N4CCC(C(C4)C=C)C3,cinchonidine,-3.07,log(mol/L),-3.07,log(mol/L),485-71-2
OC(C=1C2=C(N=CC1)C=CC=C2)C3N4CCC(C(C=C)C4)C3,cinchonidine,-3.07,log(mol/L),-3.07,log(mol/L),-
BrCCCCC,1-bromopentane,-3.07,log(mol/L),-3.07,log(mol/L),-
C1=CC=CC=C1C2=NN(P(=O)(N(C)C)N(C)C)C(N)=N2,"Phosphonic diamide, P-(5-amino-3-phenyl-1H-1,2,4",250.0,mg/L,-3.071,log(mol/L),1031-47-6
CN(C)P(=O)(N(C)C)N1N=C(N=C1N)C2=CC=CC=C2,-,2.39794,log(mg/L),-3.071,log(mol/L),1031-47-6
BrC1=CC(C(O)=O)=C(N)C=C1,2_amino_5_bromobenzoic_acid,842.692,?M/L,-3.074,log(mol/L),-
O=C(O)CC1=C(Cl)C=CC(Cl)=C1Cl,chlorfenac,-3.08,log(mol/L),-3.08,log(mol/L),85-34-7
CCCCCBr,1-bromopentane,-3.08,log(mol/L),-3.08,log(mol/L),-
CC(NC1=CC=C(Br)C=C1)=O,4-bromoacetanilide,-3.08,log(mol/L),-3.08,log(mol/L),103-88-8
OC1=CC(O)=CC=C1C2=C(O)C(C3=C(O)C=C(O)C=C3O2)=O,morin,-3.08,log(mol/L),-3.08,log(mol/L),480-16-0
CC1=CC=C(Cl)C=C1,4-Chlorotoluene,-3.08,log(mol/L),-3.08,log(mol/L),-
BrC1=CC=C(C=C1)NC(=O)C,4-bromoacetanilide,-3.08,log(mol/L),-3.08,log(mol/L),-
ClC1=C(C=CC(=C1CC(=O)O)Cl)Cl,chlorfenac,-3.08,log(mol/L),-3.08,log(mol/L),-
CC1=CC=C(Cl)C=C1,p-chlorotoluene,-3.08,log(mol/L),-3.08,log(mol/L),106-43-4
CCCCOC(=O)C1=CC=C(N)C=C1,Butamben,-3.082,log(mol/L),-3.082,log(mol/L),-
CC(NC1=CC=C(Br)C=C1)=O,p-Bromoacetanilide,-3.083,log(mol/L),-3.083,log(mol/L),-
OC1=CC=C(C(O)=C1)C=2OC=3C=C(O)C=C(O)C3C(=O)C2O,morin,-3.083,log(mol/L),-3.083,log(mol/L),-
OC1C2C(O)(C(=O)C=3C1C(O)(C4=C(C3O)C(O)=CC=C4)C)C(O)=C(C(=O)C2N(C)C)C(=O)N,oxytetracycline,816.361,?M/L,-3.088,log(mol/L),-
CC12CCC3C(C)C(OC3C2=C(C(C=C1)=O)C)=O,santonin,-3.09,log(mol/L),-3.09,log(mol/L),-
OC(C=1C2=C(N=CC1)C=CC=C2)C3N4CCC(C(C=C)C4)C3,cinchonine,-3.09,log(mol/L),-3.09,log(mol/L),-
CC12CC(O)C3C(CCC4=CC(=O)CCC34C)C1CCC2(O)C(=O)CO,Hydrocortisone,-3.09,log(mol/L),-3.09,log(mol/L),-
CC12CCC3C(C)C(OC3C2=C(C(C=C1)=O)C)=O,santonin,-3.09,log(mol/L),-3.09,log(mol/L),481-06-1
O=C1OC2C=3C(C=CC(=O)C3C)(CCC2C1C)C,santonin,-3.09,log(mol/L),-3.09,log(mol/L),-
C1=CC=C2C(C(C)C3=NC=CC=C3)=C(CCN(C)C)CC2=C1,Dimethindene,-3.09,log(mol/L),-3.09,log(mol/L),-
OC(C1N2CC(C(C1)CC2)C=C)C=3C=4C(N=CC3)=CC=CC4,cinchonine,-3.09,log(mol/L),-3.09,log(mol/L),118-10-5
OC(C1N2CC(C=C)C(CC2)C1)C3=CC=NC4=C3C=CC=C4,cinchonine,-3.09,log(mol/L),-3.09,log(mol/L),118-10-5
CCSCCSP(=S)(OC)OC,Thiometon,-3.091,log(mol/L),-3.091,log(mol/L),-
FC(F)(F)C(F)(Cl)Cl,-,2.14,log(mg/L),-3.093,log(mol/L),374-07-2
NC1=CC=C(C=C1)S(=O)(=O)C2=CC=C(N)C=C2,dapsone,-3.094,log(mol/L),-3.094,log(mol/L),-
C1CCCCC1,Cyclohexane,-3.1,log(mol/L),-3.1,log(mol/L),110-82-7
ClC1=C(C(=C(C=C1Cl)Cl)O)Cl,"2,3,4,6-Tetrachlorophenol",-3.1,log(mol/L),-3.1,log(mol/L),-
O=N(=O)C1=CC=CC=C1N(=O)=O,"1,2-Dinitrobenzene",-3.1,log(mol/L),-3.1,log(mol/L),-
OC1=C(Cl)C=C(Cl)C(Cl)=C1Cl,"2,3,4,6-Tetrachlorophenol",-3.1,log(mol/L),-3.1,log(mol/L),-
O=C(C1(O)C2(C(C3C(C4(C(=CC(=O)CC4)CC3)C)C(O)C2)CC1)C)CO,Hydrocortisone,-3.1,log(mol/L),-3.1,log(mol/L),-
C1CCCCC1,Cyclohexane,-3.1,log(mol/L),-3.1,log(mol/L),-
O=C1CCC2(C)C(CCC3C2C(CC4(C)C3CCC4(O)C(CO)=O)=O)=C1,Cortisone,-3.11,log(mol/L),-3.11,log(mol/L),53-06-5
CCC1=CC=C(C)C=C1,4-Ethyltoluene,-3.11,log(mol/L),-3.11,log(mol/L),-
CCC1=CC=C(C)C=C1,1-ethyl-4-methylbenzene,-3.11,log(mol/L),-3.11,log(mol/L),622-96-8
CC12CC(=O)C3C(CCC4=CC(=O)CCC34C)C1CCC2(O)C(=O)CO,Cortisone,-3.11,log(mol/L),-3.11,log(mol/L),-
C1(=CC=C(C=C1)C)CC,1-ethyl-4-methylbenzene,-3.11,log(mol/L),-3.11,log(mol/L),-
FC(F)(C(F)(F)Cl)Cl,"1,2-dichlorotetrafluoroethane",130.0,mg/L,-3.119,log(mol/L),76-14-2
O=C(C1=CC=CC=C1)C2=CC=CC=C2,benzophenone,-3.12,log(mol/L),-3.12,log(mol/L),119-61-9
O=C1N(C2=CC=CC=C2)N=CC(N)=C1Br,brompyrazone,-3.12,log(mol/L),-3.12,log(mol/L),3042-84-0
ClCCCCCC,1-chlorohexane,-3.12,log(mol/L),-3.12,log(mol/L),544-10-5
OC12C(CC3C(O)(C4=C(C(=O)C3=C1O)C(O)=CC=C4)C)C(N(C)C)C(O)=C(C2=O)C(=O)N,tetracycline,-3.12,log(mol/L),-3.12,log(mol/L),60-54-8
CCCCN(CCCC)CCCC,tributylamine,-3.12,log(mol/L),-3.12,log(mol/L),102-82-9
ClC(F)(F)C(F)(F)Cl,"1,2-dichlorotetrafluoroethane",-3.12,log(mol/L),-3.12,log(mol/L),76-14-2
O=S(=O)(NC1=NC=CC(C)=N1)C2=CC=C(N)C=C2,sulfamerazine,-3.12,log(mol/L),-3.12,log(mol/L),-
BrC1=C(C=NN(C1=O)C2=CC=CC=C2)N,brompyrazone,-3.12,log(mol/L),-3.12,log(mol/L),-
O=C(C1=CC=CC=C1)C2=CC=CC=C2,benzophenone,-3.12,log(mol/L),-3.12,log(mol/L),-
CCCCCCCl,1-chlorohexane,-3.12,log(mol/L),-3.12,log(mol/L),-
OC1=CC=CC2=C1C(C3=C(O)C4(C(C(C(N)=O)=C(O)C(N(C)C)C4CC3C2(O)C)=O)O)=O,tetracycline,-3.12,log(mol/L),-3.12,log(mol/L),60-54-8
OC(=O)COC1=C(Br)C=C(C)C=C1C,"Acetic acid, (2-bromo-4,6-dimethylphenoxy)-",195.0,mg/L,-3.123,log(mol/L),38206-98-3
FC(F)(Cl)C(F)(F)Cl,-,2.11,log(mg/L),-3.123,log(mol/L),76-14-2
C1=CC=CC=C1N2N=CC(N)=C(Br)C2=O,brompyrazone,-3.127,log(mol/L),-3.127,log(mol/L),-
CC=CC1=CC=C(OC)C=C1,anethole,-3.13,log(mol/L),-3.13,log(mol/L),104-46-1
FC1=CC=C(I)C=C1,1-fluoro-4-iodobenzene,-3.13,log(mol/L),-3.13,log(mol/L),352-34-1
O=C(C1=CC=CC=C1C(OCC=C)=O)OCC=C,diallyl phthalate,-3.13,log(mol/L),-3.13,log(mol/L),131-17-9
COC1=CC=C(C=CC)C=C1,anethole,-3.13,log(mol/L),-3.13,log(mol/L),-
C1CN(CCN1)C2=C(C=C3C(N(C=C(C(=O)O)C3=O)C4=CC=C(C=C4)F)=C2)F,sarafloxacin,735.587,?M/L,-3.133,log(mol/L),-
C1=CC=CC=C1CN=C=S,benzyl isothiocyanate,0.73,mmol/L,-3.137,log(mol/L),622-78-6
OC1C2C(O)(C(=O)C=3C1C(O)(C4=C(C3O)C(O)=CC=C4)C)C(O)=C(C(=O)C2N(C)C)C(=O)N,oxytetracycline,-3.14,log(mol/L),-3.14,log(mol/L),-
CC1=C(SCCO1)C(=O)NC2=CC=CC=C2,carboxin,-3.14,log(mol/L),-3.14,log(mol/L),-
O=C(C=1SCCOC1C)NC2=CC=CC=C2,carboxin,-3.14,log(mol/L),-3.14,log(mol/L),5234-68-4
BrC(Br)(Br)Br,tetrabromomethane,-3.14,log(mol/L),-3.14,log(mol/L),558-13-4
COC1=C2C(C3C4=CC=C(OC)C(OC)=C4C(O3)=O)N(C)CCC2=CC5=C1OCO5,noscapine,-3.14,log(mol/L),-3.14,log(mol/L),128-62-1
BrC(Br)(Br)Br,tetrabromomethane,-3.14,log(mol/L),-3.14,log(mol/L),-
OC12C(C(C(O)=C(C(N)=O)C1=O)N(C)C)C(C3C(=C2O)C(=O)C4=C(C3(C)O)C=CC=C4O)O,oxytetracycline,-3.14,log(mol/L),-3.14,log(mol/L),79-57-2
COC1=CC=C2C(OC(=O)C2=C1OC)C3N(C)CCC4=CC=5OCOC5C(OC)=C34,noscapine,-3.14,log(mol/L),-3.14,log(mol/L),-
O=C(NC1=CC=CC=C1)NC2=CC=CC=C2,carbanilide,-3.15,log(mol/L),-3.15,log(mol/L),102-07-8
O=C(NC1=CC=CC=C1)NC2=CC=CC=C2,carbanilide,-3.15,log(mol/L),-3.15,log(mol/L),-
O=C(C1=CC=CC=C1O)OC2=CC=CC=C2,phenyl salicylate,-3.15,log(mol/L),-3.15,log(mol/L),118-55-8
ClC1=C(C(=CC(=C1Cl)O)Cl)Cl,"2,3,4,5-Tetrachlorophenol",-3.15,log(mol/L),-3.15,log(mol/L),-
O=C(OC1=CC=CC=C1)C2=C(O)C=CC=C2,phenyl salicylate,-3.15,log(mol/L),-3.15,log(mol/L),-
CCNC1=NC(Cl)=NC(NC(C)(C)C#N)=N1,cyanazine,-3.15,log(mol/L),-3.15,log(mol/L),-
ClC1=NC(NC(C)(C)C#N)=NC(NCC)=N1,cyanazine,-3.15,log(mol/L),-3.15,log(mol/L),21725-46-2
OC1=CC(Cl)=C(Cl)C(Cl)=C1Cl,"2,3,4,5-Tetrachlorophenol",-3.15,log(mol/L),-3.15,log(mol/L),-
O=C1C(OC(C)=O)C(C2=CC=C(OC)C=C2)SC3=CC=CC=C3N1CCN(C)C,Diltiazem,693.647,?M/L,-3.159,log(mol/L),-
O=C(C1=CC=CC=C1O)OCCC(C)C,isoamyl salicylate,-3.16,log(mol/L),-3.16,log(mol/L),87-20-7
O=C(C1=CC=C(C(=C1)Br)O)OC,"Benzoic acid, 3-brom-4-hydroxy-, methyl ester",158.0,mg/L,-3.165,log(mol/L),29415-97-2
O=C1NC(=O)C2(CCCCCC2)C(=O)N1,Cycloheptyl-5-spirobarbituric acid,-3.168,log(mol/L),-3.168,log(mol/L),-
CCCCCCCC(OC)=O,Methyl octanoate,-3.17,log(mol/L),-3.17,log(mol/L),-
OC1C2C(O)(C(=O)C=3C1C(O)(C4=C(C3O)C(O)=CC=C4)C)C(O)=C(C(=O)C2N(C)C)C(=O)N,oxytetracycline,-3.17,log(mol/L),-3.17,log(mol/L),-
CCCCCCCCC=O,nonanal,-3.17,log(mol/L),-3.17,log(mol/L),124-19-6
CN(C)C(=O)NC1CC2CC1C3CCCC23,Norea,-3.171,log(mol/L),-3.171,log(mol/L),-
C(CC)(C)C,2-Methylbutane,-3.18,log(mol/L),-3.18,log(mol/L),-
CCN(CCNC(C1=C(OC)C=C(N)C(Cl)=C1)=O)CC,Metoclopramide,-3.18,log(mol/L),-3.18,log(mol/L),364-62-5
C(CCC)C,n-pentane,-3.18,log(mol/L),-3.18,log(mol/L),-
CC12CC(O)C3C(CCC4=CC(=O)C=CC34C)C1CCC2(O)C(=O)CO,Prednisolone,-3.18,log(mol/L),-3.18,log(mol/L),-
CCC(C)C,2-Methylbutane,-3.18,log(mol/L),-3.18,log(mol/L),-
ClC1=C(C=C(C(=C1)C(=O)NCCN(CC)CC)OC)N,Metoclopramide,-3.18,log(mol/L),-3.18,log(mol/L),-
SC1=NC=2C=CC=CC2S1,mercaptobenzothiazole,-3.18,log(mol/L),-3.18,log(mol/L),-
CCCCC,n-pentane,-3.18,log(mol/L),-3.18,log(mol/L),109-66-0
SC1=NC=2C=CC=CC2S1,2-mercaptobenzothiazole,-3.18,log(mol/L),-3.18,log(mol/L),149-30-4
NS(=O)(=O)C1=CC2=C(NC(NS2(=O)=O)C(Cl)Cl)C=C1Cl,trichloromethiazide_form_I,660.645,?M/L,-3.18,log(mol/L),-
C1=CC=C(C=C1)N=C=S,Phenyl isothiocyanate,0.66,mmol/L,-3.18,log(mol/L),103-72-0
OC1(C2(C(C3C(C(O)C2)C4(C(CC3)=CC(=O)C=C4)C)CC1)C)C(=O)CO,Prednisolone,-3.18,log(mol/L),-3.18,log(mol/L),-
CCCCC,Pentane,-3.18,log(mol/L),-3.18,log(mol/L),-
CCN(CC)CCNC(=O)C1=CC(Cl)=C(N)C=C1OC,Metoclopramide,-3.18,log(mol/L),-3.18,log(mol/L),-
C1CCC=CCC1,Cycloheptene,-3.18,log(mol/L),-3.18,log(mol/L),-
CCN1CCN(CC1)C2=C(C=C3C(N(C=C(C(=O)O)C3=O)C4CC4)=C2)F,enrofloxacin,659.005,?M/L,-3.181,log(mol/L),-
OCC=C(CCC=C(C)C)C,GERANIOL,100.0,mg/L,-3.188,log(mol/L),106-24-1
BrC1=CC=C(C)C=C1,p-bromotoluene,-3.19,log(mol/L),-3.19,log(mol/L),106-38-7
BrC1=C(C=CC=C1)Cl,1-bromo-2-chlorobenzene,-3.19,log(mol/L),-3.19,log(mol/L),-
BrC1=CC=CC=C1Cl,1-bromo-2-chlorobenzene,-3.19,log(mol/L),-3.19,log(mol/L),694-80-4
C1=CC=C2C(=O)NC3=C(C)C=CN=C3N(C4CC4)C2=N1,Nevirapine,-3.19,log(mol/L),-3.19,log(mol/L),-
OC(=O)C1=CC(=NC=2C=CC=CC12)C3=CC=CC=C3,Cinchophen,-3.19,log(mol/L),-3.19,log(mol/L),-
CC1=CC=NC=2N(C3CC3)C4=NC=CC=C4C(=O)NC12,Nevirapine,-3.19,log(mol/L),-3.19,log(mol/L),-
CC1=CC=C(C=C1)Br,4-Bromotoluene,-3.19,log(mol/L),-3.19,log(mol/L),-
BrC1=CC=C(C=C1)C,p-bromotoluene,-3.19,log(mol/L),-3.19,log(mol/L),-
ClC1=CC=CC=C1Br,o-Chlorobromobenzene,-3.19,log(mol/L),-3.19,log(mol/L),-
C1(=CC=C(C=C1)Br)C,p-bromotoluene,110.0,mg/L,-3.192,log(mol/L),106-38-7
CC1=CC=CC(C)=C1C,"1,2,3-trimethylbenzene",-3.2,log(mol/L),-3.2,log(mol/L),-
CC1=C(C)C=CC=C1C,"1,2,3-trimethylbenzene",-3.2,log(mol/L),-3.2,log(mol/L),526-73-8
CC1=C(C=CC=C1C)C,"1,2,3-trimethylbenzene",-3.2,log(mol/L),-3.2,log(mol/L),-
O=N(=O)C1=CC(Cl)=C(Cl)C=C1,"3,4-Dichloronitrobenzene",-3.2,log(mol/L),-3.2,log(mol/L),-
S(C=1N(C=NC1N(=O)=O)C)C2=NC=NC=3N=CNC23,Azathioprine,619.662,?M/L,-3.208,log(mol/L),-
CCC1=CC=CC=C1C,1-ethyl-2-methylbenzene,-3.21,log(mol/L),-3.21,log(mol/L),611-14-3
O=C1C=CC2(C)C(CCC3C2C(O)CC4(C)C3CCC4(O)C(CO)=O)=C1,Prednisolone,-3.21,log(mol/L),-3.21,log(mol/L),50-24-8
CC1CC=CC=CC=CC=CC(OC2OC(C)C(O)C(N)C2O)CC3C(C(O)=O)C(O)CC(O3)(O)CC(O)CC4OC4C=CC(O1)=O,natamycin,-3.21,log(mol/L),-3.21,log(mol/L),7681-93-8
C1(=CC=CC(Br)=C1)Cl,m-Bromochlorobenzene,118.0,mg/L,-3.21,log(mol/L),108-37-2
C(C)C1=C(C=CC=C1)C,1-ethyl-2-methylbenzene,-3.21,log(mol/L),-3.21,log(mol/L),-
CCC1=CC=CC=C1C,2-Ethyltoluene,-3.21,log(mol/L),-3.21,log(mol/L),-
BrC1=CC(Cl)=CC=C1,1-bromo-3-chlorobenzene,-3.21,log(mol/L),-3.21,log(mol/L),108-37-2
BrC1=CC(=CC=C1)Cl,1-bromo-3-chlorobenzene,-3.21,log(mol/L),-3.21,log(mol/L),-
ClC1=CC=CC(Br)=C1,m-Chlorobromobenzene,-3.21,log(mol/L),-3.21,log(mol/L),-
O=C1NCCN1C2=NC=C(S2)N(=O)=O,niridazole,-3.22,log(mol/L),-3.22,log(mol/L),-
IC=CI,"1,2-diiodoethylene",-3.22,log(mol/L),-3.22,log(mol/L),590-27-2
O=C1NCCN1C2=NC=C(N(=O)=O)S2,niridazole,-3.22,log(mol/L),-3.22,log(mol/L),61-57-4
O=C(O)C(C1=CC=CC=C1)C2=CC=CC=C2,diphenylacetic acid,-3.22,log(mol/L),-3.22,log(mol/L),117-34-0
CC1=C(C=C(C=C1N(=O)=O)N(=O)=O)N(=O)=O,"2,4,6-Trinitrotoluene",-3.22,log(mol/L),-3.22,log(mol/L),-
CNC(=O)OC1=CC=CC=2C=CC=CC12,carbaryl,-3.224,log(mol/L),-3.224,log(mol/L),-
CCCCN1CCCCC1C(=O)NC2=C(C)C=CC=C2C,bupivacaine,596.827,?M/L,-3.224,log(mol/L),-
C=CCCCC,1-hexene,-3.23,log(mol/L),-3.23,log(mol/L),592-41-6
CCCCC=C,1-hexene,-3.23,log(mol/L),-3.23,log(mol/L),-
C(CC)CC=C,1-hexene,-3.23,log(mol/L),-3.23,log(mol/L),-
O=C1NC(CN1N=CC2=CC=C(N(=O)=O)O2)=O,nitrofurantoin,577.432,?M/L,-3.238,log(mol/L),-
CCNC1=NC(NC(C)(C)C)=NC(OC)=N1,Terbumeton,-3.239,log(mol/L),-3.239,log(mol/L),-
CC(NC1=C(C)C=C(C)C(NS(=O)(C(F)(F)F)=O)=C1)=O,Mefluidide,-3.24,log(mol/L),-3.24,log(mol/L),53780-34-0
CC(=O)NC1=CC(NS(=O)(=O)C(F)(F)F)=C(C)C=C1C,Mefluidide,-3.24,log(mol/L),-3.24,log(mol/L),-
CC(C)CC=C,4-methyl-1-pentene,-3.24,log(mol/L),-3.24,log(mol/L),691-37-2
ClC1=CC(N)=CC=C1Cl,"3,4-dichloroaniline",-3.24,log(mol/L),-3.24,log(mol/L),95-76-1
CC12CC(O)C3C(CCC4=CC(=O)CCC34C)C1CCC2C(=O)CO,corticosterone,-3.24,log(mol/L),-3.24,log(mol/L),-
OC1C2C(C3C(C1)(C(CC3)C(=O)CO)C)CCC=4C2(CCC(=O)C4)C,corticosterone,-3.24,log(mol/L),-3.24,log(mol/L),-
C=CCC(C)C,4-methyl-1-pentene,-3.24,log(mol/L),-3.24,log(mol/L),-
COC1=CC(=O)CC(C)C12OC3=C(Cl)C(OC)=CC(OC)=C3C2=O,Griseofulvin,-3.246,log(mol/L),-3.246,log(mol/L),-
ClC1=CC=C(S(=O)(NC(=O)NCCC)=O)C=C1,chlorpropamide,564.456,?M/L,-3.248,log(mol/L),-
CC(NC1=CC=C(C=C1)I)=O,4-iodoacetanilide,-3.25,log(mol/L),-3.25,log(mol/L),622-50-4
O=CC1=CC(O)=CC(Br)=C1,5-Bromo-3-hydroxybenzaldehyde,113.0,mg/L,-3.25,log(mol/L),-
O=C(C=CC1C(=CCCC1(C)C)C)C,alpha-ionone,106.0,ppm,-3.259,log(mol/L),127-41-3
O=C(C1=CC=C(C=C1)N)OCCCCC,pentyl-4-aminobenzoate,-3.26,log(mol/L),-3.26,log(mol/L),13110-37-7
CCC1=CC=CC(CC)=C1N(COC)C(=O)CCl,alachlor,-3.26,log(mol/L),-3.26,log(mol/L),-
O=C(N(C1=C(CC)C=CC=C1CC)COC)CCl,alachlor,-3.26,log(mol/L),-3.26,log(mol/L),15972-60-8
COC(C1=C(Cl)C(N)=CC(Cl)=C1)=O,chloramben methyl ester,-3.26,log(mol/L),-3.26,log(mol/L),7286-84-2
ClC1=C(C=C(C=C1C(=O)OC)Cl)N,chloramben methyl ester,-3.26,log(mol/L),-3.26,log(mol/L),-
CC(CCC1C(N(C2=CC=CC=C2)N(C3=CC=CC=C3)C1=O)=O)=O,kebuzone,-3.27,log(mol/L),-3.27,log(mol/L),-
C1CCC=C(C1)C,1-methylcyclohexene,-3.27,log(mol/L),-3.27,log(mol/L),-
CC1=CCCCC1,1-methylcyclohexene,-3.27,log(mol/L),-3.27,log(mol/L),-
CC(C)C1=CC=CC=C1,isopropylbenzene,-3.27,log(mol/L),-3.27,log(mol/L),98-82-8
C1=CC(N)=CC=C1C(=O)OCCNCCCCC,naepaine,-3.27,log(mol/L),-3.27,log(mol/L),2188-67-2
CC1=CCCCC1,1-methylcyclohexene,-3.27,log(mol/L),-3.27,log(mol/L),591-49-1
O=C(C1=CC(I)=CC=C1)O,m-iodobenzoic acid,-3.27,log(mol/L),-3.27,log(mol/L),618-51-9
O=C(OCCNCCCCC)C1=CC=C(C=C1)N,naepaine,-3.27,log(mol/L),-3.27,log(mol/L),2188-67-2
ClC1=CC=C(Cl)C=C1,"1,4-dichlorobenzene",-3.27,log(mol/L),-3.27,log(mol/L),-
CC(C)C1=CC=CC=C1,isopropylbenzene,-3.27,log(mol/L),-3.27,log(mol/L),-
ClC1=CC=C(Cl)C=C1,"1,4-dichlorobenzene",-3.27,log(mol/L),-3.27,log(mol/L),106-46-7
CC(CCC1C(N(C2=CC=CC=C2)N(C3=CC=CC=C3)C1=O)=O)=O,kebuzone,-3.27,log(mol/L),-3.27,log(mol/L),853-34-9
OC1=CC=C(C=C1)C(C2=CC=C(O)C=C2)(C)C,diphenylolpropane,120.0,mg/L,-3.279,log(mol/L),80-05-7
O=C(NC)OC=1C=2C=CC=CC2C=CC1,carbaryl,-3.28,log(mol/L),-3.28,log(mol/L),63-25-2
CCC1=CC=CC=C1CC,"1,2-Diethylbenzene",-3.28,log(mol/L),-3.28,log(mol/L),-
C(C)C1=C(C=CC=C1)CC,"1,2-Diethylbenzene",-3.28,log(mol/L),-3.28,log(mol/L),-
COC1=NN=C(NS(=O)(C2=CC=C(C=C2)N)=O)C=C1,sulfamethoxypyridazine,-3.28,log(mol/L),-3.28,log(mol/L),80-35-3
OC1=C2C3=C(C=C1)CC4C5C3(C(O2)C(C=C5)O)CCN4C,Morphine,-3.28,log(mol/L),-3.28,log(mol/L),57-27-2
C1=CC2C3N(C)CCC42C5=C(C(=CC=C5C3)O)OC4C1O,Morphine,-3.28,log(mol/L),-3.28,log(mol/L),-
CCC1NC(C2=CC(S(N)(=O)=O)=C(C=C2N1)Cl)=O,quinethazone,-3.29,log(mol/L),-3.29,log(mol/L),73-49-4
CCC1NC(=O)C2=CC(=C(Cl)C=C2N1)S(N)(=O)=O,quinethazone,-3.29,log(mol/L),-3.29,log(mol/L),-
NC(=O)N1C2=CC=CC=C2C=CC3=CC=CC=C13,carbamazepine,-3.29,log(mol/L),-3.29,log(mol/L),-
ClC1=CC2=C(C=C1S(=O)(=O)N)C(NC(N2)CC)=O,quinethazone,-3.29,log(mol/L),-3.29,log(mol/L),-
NCCC1=CNC=2C=CC=CC12,tryptamine,506.279,?M/L,-3.296,log(mol/L),-
CCCCCCCCOC(N)=O,n-octyl carbamate,-3.3,log(mol/L),-3.3,log(mol/L),2029-64-3
CC1CCCC1,Methylcyclopentane,-3.3,log(mol/L),-3.3,log(mol/L),-
CCCCCCCCC(=O)C,2-decanone,-3.3,log(mol/L),-3.3,log(mol/L),-
C1(C)CCCC1,Methylcyclopentane,-3.3,log(mol/L),-3.3,log(mol/L),-
CC1CCCC1,Methylcyclopentane,-3.3,log(mol/L),-3.3,log(mol/L),96-37-7
CC1=C(C(NC2=CC=CC=C2)=O)C=CO1,fenfuram,-3.3,log(mol/L),-3.3,log(mol/L),24691-80-3
CC=1OC=CC1C(=O)NC2=CC=CC=C2,fenfuram,-3.3,log(mol/L),-3.3,log(mol/L),-
O=CC1=C(O)C=CC(=C1)Br,"Benzaldehyde, 5-bromo-2-hydroxy-",100.0,mg/L,-3.303,log(mol/L),1761-61-1
CCCCC(CN1C=NC=N1)(C#N)C2=CC=C(Cl)C=C2,-,2.152288,log(mg/L),-3.308,log(mol/L),88671-89-0
C1=CC(Cl)=CC=C1C(C#N)(CCCC)CN2N=CN=C2,MYCLOBUTANIL,142.0,mg/L,-3.308,log(mol/L),88671-89-0
FC(F)(C(Cl)(Cl)Cl)Cl,"1,1,1,2-TETRACHLORO-2,2-DIFLUOROETHANE",100.0,mg/L,-3.309,log(mol/L),76-11-9
CC1=CC=C(C)C(C)=C1,"1,2,4-trimethylbenzene",-3.31,log(mol/L),-3.31,log(mol/L),-
CC1=C(C=CC(=C1)C)C,"1,2,4-trimethylbenzene",-3.31,log(mol/L),-3.31,log(mol/L),-
O=C(C1=CC(I)=CC(=C1O)I)O,"3,5-diiodosalicylic acid",-3.31,log(mol/L),-3.31,log(mol/L),133-91-5
O=C(C1=CC=C(Cl)C=C1)O,p-chlorobenzoic acid,-3.31,log(mol/L),-3.31,log(mol/L),74-11-3
CC(CCCCCCCC)=O,2-decanone,-3.31,log(mol/L),-3.31,log(mol/L),693-54-9
CC1=CC(C)=CC=C1C,"1,2,4-trimethylbenzene",-3.31,log(mol/L),-3.31,log(mol/L),95-63-6
CC(C1CC1)C(O)(CN2C=NC=N2)C3=CC=C(Cl)C=C3,-,2.146128,log(mg/L),-3.319,log(mol/L),94361-06-5
C1=CC(Cl)=CC=C1C(O)(C(C)C2CC2)CN3N=CN=C3,Cyproconazole,140.0,mg/L,-3.319,log(mol/L),94361-06-5
COC=1C=C(OC)N2N=C(S(=O)(=O)NC3=C(Cl)C(C)=CC=C3Cl)N=C2N1,Metosulam,200.0,mg/L,-3.32,log(mol/L),139528-85-1
O=C1CC2OCC=C3C4CC5C6(C(N1C7=C6C=CC=C7)C24)CCN5C3,strychnine,-3.32,log(mol/L),-3.32,log(mol/L),57-24-9
CN(C)C(=O)NC1=CC=CC(=C1)C(F)(F)F,Fluorometuron,-3.32,log(mol/L),-3.32,log(mol/L),-
COC1=CC(OC)=NC2=NC(=NN12)S(=O)(=O)NC3=C(Cl)C(C)=CC=C3Cl,-,2.30103,log(mg/L),-3.32,log(mol/L),139528-85-1
CCN1C2=CC=CC=C2N(C)C(=O)C3=CC=CN=C13,-,-3.324,log(mol/L),-3.324,log(mol/L),-
OC1=C(Br)C=C(C#N)C=C1Br,bromoxynil,130.0,mg/L,-3.328,log(mol/L),1689-84-5
BrC1=CC(C#N)=CC(Br)=C1O,bromoxynil,-3.33,log(mol/L),-3.33,log(mol/L),1689-84-5
OC1=C(Br)C=C(C#N)C=C1Br,bromoxynil,-3.33,log(mol/L),-3.33,log(mol/L),-
BrC1=C(C(=CC(=C1)C#N)Br)O,bromoxynil,-3.33,log(mol/L),-3.33,log(mol/L),-
CCOP(OCC)(N1C(C2=CC=CC=C2C1=O)=O)=S,ditalimfos,-3.35,log(mol/L),-3.35,log(mol/L),5131-24-8
CCOP(=S)(OCC)N1C(=O)C2=CC=CC=C2C1=O,ditalimfos,-3.35,log(mol/L),-3.35,log(mol/L),-
CN(C(=O)NC(C)(C)C1=CC=CC=C1)C2=CC=CC=C2,Methyldymron,-3.35,log(mol/L),-3.35,log(mol/L),-
O=C(SCCC)N(CCCC)CC,pedulate,-3.35,log(mol/L),-3.35,log(mol/L),1114-71-2
ClC1=CC(Cl)=CC=C1C2(CN3N=CN=C3)OC(CCC)CO2,Propiconazole,150.0,mg/L,-3.358,log(mol/L),60207-90-1
S=C1NC(=O)C(C(CCC)C)(CC)C(=O)N1,thiopental,-3.36,log(mol/L),-3.36,log(mol/L),-
C=12C=3C=CC=NC3C=CC1C=CC=C2,benzo(f)quinoline,-3.36,log(mol/L),-3.36,log(mol/L),85-02-9