SMILES,NAME,Water solubility,UNIT {Water solubility},Solubility_log(mol/L),UNIT {Water solubility}.1,CASRN,MolW(Da),NumHAcceptors,NumHDonors,LogP,Lipinski_rule,Solubility(mol/L)
CC(C)(C)C(O)C(=Cc1ccc(Cl)cc1)n1cncn1,Uniconazole-P,8.41,mg/L,-4.54,log(mol/L),83657-17-4,291.782,4,1,3.3366000000000025,1,2.8840315031266056e-05
Clc1ccccc1-c1ccccc1,2-chlorobiphenyl,-4.54,log(mol/L),-4.54,log(mol/L),2051-60-7,188.657,0,0,4.007000000000002,1,2.8840315031266056e-05
CC(C)(C)C(O)C(=Cc1ccc(Cl)cc1)n1cncn1,-,0.924796,log(mg/L),-4.54,log(mol/L),83657-17-4,291.782,4,1,3.3366000000000025,1,2.8840315031266056e-05
Clc1ccccc1-c1ccccc1,2-chlorobiphenyl,-4.54,log(mol/L),-4.54,log(mol/L),-,188.657,0,0,4.007000000000002,1,2.8840315031266056e-05
CC(C)(C)C(O)C(=Cc1ccc(Cl)cc1)n1cncn1,-,0.924796,log(mg/L),-4.54,log(mol/L),83657-22-1,291.782,4,1,3.3366000000000025,1,2.8840315031266056e-05
Ic1cccc2ccccc12,1-Iodonapthalene,-4.55,log(mol/L),-4.55,log(mol/L),-,254.07000000000002,0,0,3.4444000000000017,1,2.818382931264455e-05
CCNc1nc(Cl)nc(NCC)n1,simazine,-4.55,log(mol/L),-4.55,log(mol/L),122-34-9,201.661,5,2,1.3885999999999998,1,2.818382931264455e-05
CN(C)CCC=C1c2ccccc2CCc2ccccc21,amitryptyline,28.2093,?M/L,-4.55,log(mol/L),-,277.411,1,0,4.168600000000003,1,2.818382931264455e-05
CCNc1nc(Cl)nc(NCC)n1,simazine,-4.55,log(mol/L),-4.55,log(mol/L),-,201.661,5,2,1.3885999999999998,1,2.818382931264455e-05
CCN1c2ncccc2C(=O)Nc2c(C)cc(C)nc21,RTI 15,-4.554,log(mol/L),-4.554,log(mol/L),-,268.32,4,1,2.817140000000001,1,2.792543841237336e-05
Brc1ccc(I)cc1,4-BROMOIODOBENZENE,7.79,mg/L,-4.56,log(mol/L),589-87-7,282.90599999999995,0,0,3.053700000000001,1,2.754228703338169e-05
Brc1ccc(I)cc1,p-Bromoiodobenzene,-4.56,log(mol/L),-4.56,log(mol/L),-,282.90599999999995,0,0,3.053700000000001,1,2.754228703338169e-05
CC(C)(C)C(O)C(Cc1ccc(Cl)cc1Cl)n1cncn1,-,0.9542425,log(mg/L),-4.562,log(mol/L),75736-33-3,328.243,4,1,3.7757000000000023,1,2.7415741719278808e-05
CC(C)(C)C(O)C(Cc1ccc(Cl)cc1Cl)n1cncn1,DICLOBUTRAZOL ISOMERS,9.0,mg/L,-4.562,log(mol/L),75736-33-3,328.243,4,1,3.7757000000000023,1,2.7415741719278808e-05
O=C1Nc2ccc(Cl)cc2C(C#CC2CC2)(C(F)(F)F)O1,Efavirenz,-4.57,log(mol/L),-4.57,log(mol/L),-,315.67799999999994,2,1,4.073100000000001,1,2.691534803926914e-05
COP(=S)(OC)Oc1ccc(SC)c(C)c1,fenthion,-4.57,log(mol/L),-4.57,log(mol/L),55-38-9,278.335,5,0,3.6130200000000023,1,2.691534803926914e-05
Clc1ccc(Cl)c(Cl)c1Cl,"1,2,3,4-tetrachlorobenzene",-4.57,log(mol/L),-4.57,log(mol/L),634-66-2,215.894,0,0,4.3002,1,2.691534803926914e-05
C#CC1(O)CCC2C3CCC4=CC(=O)CCC4C3CCC21C,norethisterone,-4.57,log(mol/L),-4.57,log(mol/L),68-22-4,298.42600000000004,2,1,3.4925000000000024,1,2.691534803926914e-05
Clc1ccc(Cl)c(Cl)c1Cl,"1,2,3,4-tetrachlorobenzene",-4.57,log(mol/L),-4.57,log(mol/L),-,215.894,0,0,4.3002,1,2.691534803926914e-05
O=C(OCC(O)CO)c1ccccc1Nc1ccnc2cc(Cl)ccc12,Glafenine,-4.57,log(mol/L),-4.57,log(mol/L),-,372.80800000000005,6,3,3.141800000000001,1,2.691534803926914e-05
C#CC1(O)CCC2C3CCC4=CC(=O)CCC4(O)C3CCC21C,norethisterone,-4.57,log(mol/L),-4.57,log(mol/L),-,314.42500000000007,3,2,2.607400000000001,1,2.691534803926914e-05
COP(=S)(OC)Oc1ccc(SC)c(C)c1,fenthion,-4.57,log(mol/L),-4.57,log(mol/L),-,278.335,5,0,3.6130200000000023,1,2.691534803926914e-05
O=C(OCC(O)CO)c1ccccc1Nc1ccnc2cc(Cl)ccc12,Glafenine,-4.571,log(mol/L),-4.571,log(mol/L),-,372.80800000000005,6,3,3.141800000000001,1,2.685344445658509e-05
CCOC(=O)c1ccccc1S(=O)(=O)NN(C=O)c1nc(Cl)cc(OC)n1,Chlorimuron-ethyl (ph 7),-4.576,log(mol/L),-4.576,log(mol/L),-,414.82700000000017,8,1,1.1715999999999998,1,2.6546055619755417e-05
O=C(O)c1cccnc1Nc1cccc(C(F)(F)F)c1,niflumic_acid,26.3681,?M/L,-4.579,log(mol/L),-,282.221,3,2,3.542200000000001,1,2.6363313858253814e-05
CC(C)(C)C(=O)OCC(=O)C1(O)CCC2C3CCC4=CC(=O)C=CC4(C)C3C(O)CC21C,prednisolone-21-trimethylacetate,-4.58,log(mol/L),-4.58,log(mol/L),1107-99-9,444.56800000000015,6,2,3.154600000000001,1,2.6302679918953814e-05
Cc1cc(C)c(C)cc1C,"1,2,4,5-Tetramethylbenzene",-4.59,log(mol/L),-4.59,log(mol/L),-,134.22199999999998,0,0,2.9202800000000018,1,2.5703957827688645e-05
ClC1C(Cl)C(Cl)C(Cl)C(Cl)C1Cl,gamma-hexachlorocyclohexane,-4.59,log(mol/L),-4.59,log(mol/L),58-89-9,290.832,0,0,3.644400000000001,1,2.5703957827688645e-05
COC1=CC(=O)CC(C)C12Oc1c(Cl)c(OC)cc(OC)c1C2=O,Griseofulvin,-4.59,log(mol/L),-4.59,log(mol/L),-,352.7700000000001,6,0,2.8103000000000007,1,2.5703957827688645e-05
O=c1[nH]c2c(c(=O)n1C1CCCCC1)CCC2,Lenacil,-4.594,log(mol/L),-4.594,log(mol/L),-,234.2989999999999,3,1,1.5305,1,2.5468302525850393e-05
ClC1C(Cl)C(Cl)C(Cl)C(Cl)C1Cl,gamma-hexachlorocyclohexane,-4.6,log(mol/L),-4.6,log(mol/L),58-89-9,290.832,0,0,3.644400000000001,1,2.5118864315095822e-05
CCCCCCCOC(=O)c1ccc(N)cc1,heptyl-4-aminobenzoate,-4.6,log(mol/L),-4.6,log(mol/L),14309-40-1,235.327,3,1,3.3960000000000017,1,2.5118864315095822e-05
S=C=Nc1cccc2ccccc12,1-naphthyl isothiocyanate,-4.6,log(mol/L),-4.6,log(mol/L),551-06-4,185.251,2,0,3.5741000000000014,1,2.5118864315095822e-05
c1ccc2c(c1)oc1ccccc12,dibenzofuran,-4.6,log(mol/L),-4.6,log(mol/L),132-64-9,168.195,1,0,3.586000000000001,1,2.5118864315095822e-05
CC(=O)C1CCC2C3CCC4=CC(=O)CCC4(C)C3CCC12C,progesterone,-4.6,log(mol/L),-4.6,log(mol/L),-,314.46900000000005,2,0,4.723500000000005,1,2.5118864315095822e-05
CC(C)(C)C(=O)OCC(=O)C1(O)CCC2C3CCC4=CC(=O)C=CC4(C)C3C(O)CC21C,Prednisolone 21-Trimethylacetate,-4.6,log(mol/L),-4.6,log(mol/L),-,444.56800000000015,6,2,3.154600000000001,1,2.5118864315095822e-05
COc1ccc2c(c1)c(CC(=O)O)c(C)n2C(=O)c1ccc(Cl)cc1,Indomethacin,-4.6,log(mol/L),-4.6,log(mol/L),-,357.793,4,1,3.9273200000000026,1,2.5118864315095822e-05
c1ccc2c(c1)oc1ccccc12,Dibenzofurane,-4.6,log(mol/L),-4.6,log(mol/L),-,168.195,1,0,3.586000000000001,1,2.5118864315095822e-05
S=C=Nc1cccc2ccccc12,Naphthyl isothiocyanate,0.025,mmol/L,-4.602,log(mol/L),551-06-4,185.251,2,0,3.5741000000000014,1,2.5003453616964294e-05
O=c1oc(-c2ccccc2)nc2ccccc12,"2-phenyl-3,1-benzoxazin-4-one",-4.61,log(mol/L),-4.61,log(mol/L),1022-46-4,223.231,3,0,2.8550000000000013,1,2.4547089156850286e-05
COC1=CC(=O)CC(C)C12Oc1c(Cl)c(OC)cc(OC)c1C2=O,Griseofulvin,-4.61,log(mol/L),-4.61,log(mol/L),126-07-8,352.7700000000001,6,0,2.8103000000000007,1,2.4547089156850286e-05
COC1=CC(=O)CC(C)C12Oc1c(Cl)c(OC)cc(OC)c1C2=O,Griseofulvin,-4.61,log(mol/L),-4.61,log(mol/L),-,352.7700000000001,6,0,2.8103000000000007,1,2.4547089156850286e-05
CCCCCCCCCCCC(=O)O,vulvic acid,-4.62,log(mol/L),-4.62,log(mol/L),143-07-7,200.32199999999997,1,1,3.991900000000002,1,2.39883291901949e-05
c1ccc(CCc2ccccc2)cc1,bibenzyl,-4.62,log(mol/L),-4.62,log(mol/L),103-29-7,182.26600000000002,0,0,3.4718000000000018,1,2.39883291901949e-05
Cc1ccc(-c2ccccc2)cc1,4-Methylbiphenyl,-4.62,log(mol/L),-4.62,log(mol/L),-,168.239,0,0,3.662020000000002,1,2.39883291901949e-05
COc1ccc2c(c1)c(CC(=O)O)c(C)n2C(=O)c1ccc(Cl)cc1,Indomethacin,-4.62,log(mol/L),-4.62,log(mol/L),53-86-1,357.793,4,1,3.9273200000000026,1,2.39883291901949e-05
c1ccc(CCc2ccccc2)cc1,bibenzyl,-4.62,log(mol/L),-4.62,log(mol/L),-,182.26600000000002,0,0,3.4718000000000018,1,2.39883291901949e-05
C#CC1(O)CCC2C3CCC4=CC(=O)CCC4C3CCC21C,Norethindrone,-4.63,log(mol/L),-4.63,log(mol/L),-,298.42600000000004,2,1,3.4925000000000024,1,2.344228815319923e-05
Clc1cc(Cl)c(Cl)c(Cl)c1,"1,2,3,5-tetrachlorobenzene",-4.63,log(mol/L),-4.63,log(mol/L),-,215.894,0,0,4.3002,1,2.344228815319923e-05
CC(=O)OCC(=O)C1CCC2C3CCC4=CC(=O)CCC4(C)C3CCC12C,deoxycorticosterone acetate,-4.63,log(mol/L),-4.63,log(mol/L),-,372.5050000000002,4,0,4.266700000000004,1,2.344228815319923e-05
CC(=O)OCC(=O)C1CCC2C3CCC4=CC(=O)CCC4(C)C3CCC12C,deoxycorticosterone acetate,-4.63,log(mol/L),-4.63,log(mol/L),56-47-3,372.5050000000002,4,0,4.266700000000004,1,2.344228815319923e-05
c1cc2c3c(cccc3c1)CC2,Acenapthene,-4.63,log(mol/L),-4.63,log(mol/L),-,154.21199999999993,0,0,2.9384000000000006,1,2.344228815319923e-05
CCCCCCCCCC(=O)OC,methyl caprate,-4.63,log(mol/L),-4.63,log(mol/L),110-42-9,186.295,2,0,3.3001000000000023,1,2.344228815319923e-05
c1cc2c3c(cccc3c1)CC2,Acenaphthene,-4.63,log(mol/L),-4.63,log(mol/L),-,154.21199999999993,0,0,2.9384000000000006,1,2.344228815319923e-05
Clc1cc(Cl)c(Cl)c(Cl)c1,"1,2,3,5-tetrachlorobenzene",-4.63,log(mol/L),-4.63,log(mol/L),634-90-2,215.894,0,0,4.3002,1,2.344228815319923e-05
c1cc2c3c(cccc3c1)CC2,Acenaphthene,-4.63,log(mol/L),-4.63,log(mol/L),83-32-9,154.21199999999993,0,0,2.9384000000000006,1,2.344228815319923e-05
CCOC(=O)Nc1cccc(OC(=O)Nc2ccccc2)c1,Desmedipham,-4.632,log(mol/L),-4.632,log(mol/L),-,300.314,4,2,3.8659000000000017,1,2.3334580622810045e-05
CCN1c2ncccc2C(=S)N(C)c2cccnc21,RTI 16,-4.634,log(mol/L),-4.634,log(mol/L),-,270.361,4,0,2.759900000000001,1,2.322736796357105e-05
CCCCCc1ccccc1,Pentylbenzene,-4.64,log(mol/L),-4.64,log(mol/L),-,148.249,0,0,3.4193000000000024,1,2.290867652767775e-05
CCCCCc1ccccc1,n-pentylbenzene,-4.64,log(mol/L),-4.64,log(mol/L),538-68-1,148.249,0,0,3.4193000000000024,1,2.290867652767775e-05
CCCCCc1ccccc1,n-pentylbenzene,-4.64,log(mol/L),-4.64,log(mol/L),-,148.249,0,0,3.4193000000000024,1,2.290867652767775e-05
ClC1C(Cl)C(Cl)C(Cl)C(Cl)C1Cl,lindane,-4.64,log(mol/L),-4.64,log(mol/L),-,290.832,0,0,3.644400000000001,1,2.290867652767775e-05
ClC1C(Cl)C(Cl)C(Cl)C(Cl)C1Cl,lindane,-4.64,log(mol/L),-4.64,log(mol/L),58-89-9,290.832,0,0,3.644400000000001,1,2.290867652767775e-05
CC(=O)C1CCC2C3CC=C4CC(O)CCC4(C)C3CCC12C,pregnenolone,-4.65,log(mol/L),-4.65,log(mol/L),145-13-1,316.48500000000007,2,1,4.515300000000004,1,2.238721138568338e-05
CC(=O)C1CCC2C3CC=C4CC(O)CCC4(C)C3CCC12C,pregnenolone,-4.65,log(mol/L),-4.65,log(mol/L),-,316.48500000000007,2,1,4.515300000000004,1,2.238721138568338e-05
CC1(C)CCC(=Cc2ccc(Cl)cc2)C1(O)Cn1cncn1,-,0.845098,log(mg/L),-4.657,log(mol/L),131983-72-7,317.82,4,1,3.566200000000003,1,2.202926463053456e-05
CC1(C)CCC(=Cc2ccc(Cl)cc2)C1(O)Cn1cncn1,Triticonazole,7.0,mg/L,-4.657,log(mol/L),131983-72-7,317.82,4,1,3.566200000000003,1,2.202926463053456e-05
CCOP(=S)(OCC)Oc1ccc([N+](=O)[O-])cc1,parathion,-4.66,log(mol/L),-4.66,log(mol/L),56-38-2,291.265,6,0,3.2711000000000023,1,2.187761623949552e-05
CC(C)COC(=O)c1ccccc1C(=O)OCC(C)C,diisobutyl phthalate,-4.66,log(mol/L),-4.66,log(mol/L),84-69-5,278.348,4,0,3.3122000000000025,1,2.187761623949552e-05
CCOP(=S)(OCC)Oc1ccc([N+](=O)[O-])cc1,parathion,-4.66,log(mol/L),-4.66,log(mol/L),-,291.265,6,0,3.2711000000000023,1,2.187761623949552e-05
Fc1ccc(C2(Cn3cncn3)OC2c2ccccc2Cl)cc1,Epoxiconazole,7.1,mg/L,-4.667,log(mol/L),106325-08-0,329.76200000000006,4,0,3.7376000000000023,1,2.152781734724374e-05
COc1ccc(CCN(C)CCCC(C#N)(c2ccc(OC)c(OC)c2)C(C)C)cc1OC,Verapamil,-4.67,log(mol/L),-4.67,log(mol/L),-,454.6110000000002,6,0,5.093080000000005,0,2.1379620895022323e-05
CCCCCCCCCCCCO,dodecanol,-4.67,log(mol/L),-4.67,log(mol/L),112-53-8,186.33899999999997,1,1,3.8996000000000035,1,2.1379620895022323e-05
CCCCC(=O)OCN1C(=O)NC(c2ccccc2)(c2ccccc2)C1=O,3-Pentanoyloxymethylphenytoin,-4.678,log(mol/L),-4.678,log(mol/L),-,366.4170000000001,4,1,3.172900000000002,1,2.0989398836235246e-05
Cc1cccc2c(C)cccc12,"1,5-Dimethlnapthalene",-4.679,log(mol/L),-4.679,log(mol/L),-,156.228,0,0,3.456640000000002,1,2.0941124558508915e-05
CC(C)C1CCC(Cc2ccc(Cl)cc2)C1(O)Cn1cncn1,IPCONAZOLE,6.93,mg/L,-4.683,log(mol/L),125225-28-7,333.86300000000006,4,1,3.587500000000002,1,2.0749135174549106e-05
CC(C)C1CCC(Cc2ccc(Cl)cc2)C1(O)Cn1cncn1,-,0.8407332,log(mg/L),-4.683,log(mol/L),125225-28-7,333.86300000000006,4,1,3.587500000000002,1,2.0749135174549106e-05
CCCCCCCCCCCC(=O)OC,methyl laurate,-4.69,log(mol/L),-4.69,log(mol/L),111-82-0,214.34899999999996,2,0,4.080300000000003,1,2.0417379446695274e-05
CCCCCCCCCC(=O)OC,Methyl decanoate,-4.69,log(mol/L),-4.69,log(mol/L),-,186.295,2,0,3.3001000000000023,1,2.0417379446695274e-05
CCCCCCCCCCCC(=O)OC,methyl laurate,-4.69,log(mol/L),-4.69,log(mol/L),-,214.34899999999996,2,0,4.080300000000003,1,2.0417379446695274e-05
CNCCCC12CCC(c3ccccc31)c1ccccc12,Maprotiline,20.3495,?M/L,-4.691,log(mol/L),-,277.41100000000006,1,1,4.211400000000004,1,2.037042077705719e-05
Fc1ccc(C2(Cn3cncn3)OC2c2ccccc2Cl)cc1,BAS 480F,6.63,mg/L,-4.697,log(mol/L),106325-08-0,329.76200000000006,4,0,3.7376000000000023,1,2.009092812608728e-05
Fc1ccc(C2(Cn3cncn3)OC2c2ccccc2Cl)cc1,Epoxiconazole,6.63,mg/L,-4.697,log(mol/L),106325-08-0,329.76200000000006,4,0,3.7376000000000023,1,2.009092812608728e-05
CC(C(=O)O)c1ccc2c(c1)[nH]c1ccc(Cl)cc12,carprofen,20.0337,?M/L,-4.698,log(mol/L),-,273.719,1,2,4.162600000000002,1,2.0044720273651594e-05
CCOC(=O)NCCOc1ccc(Oc2ccccc2)cc1,Fenoxycarb,-4.7,log(mol/L),-4.7,log(mol/L),-,301.34200000000004,4,1,3.6038000000000023,1,1.9952623149688786e-05
O=C(Nc1ccc([N+](=O)[O-])cc1Cl)c1cc(Cl)ccc1O,niclosamide,-4.7,log(mol/L),-4.7,log(mol/L),50-65-7,327.12300000000005,4,2,3.859500000000001,1,1.9952623149688786e-05
CN(C)CCCN1c2ccccc2Sc2ccc(C(F)(F)F)cc21,triflupromazine,-4.7,log(mol/L),-4.7,log(mol/L),-,352.42500000000007,3,0,5.259800000000004,0,1.9952623149688786e-05
CC(=O)OCCN1CCN(CCCN2c3ccccc3Sc3ccc(Cl)cc32)CC1,thiopropazate,-4.7,log(mol/L),-4.7,log(mol/L),84-06-0,446.01600000000025,6,0,4.513500000000004,1,1.9952623149688786e-05
O=C(Nc1ccc([N+](=O)[O-])cc1Cl)c1cc(Cl)ccc1O,niclosamide,-4.7,log(mol/L),-4.7,log(mol/L),-,327.12300000000005,4,2,3.859500000000001,1,1.9952623149688786e-05
CC(=O)OCCN1CCN(CCCN2c3ccccc3Sc3ccc(Cl)cc32)CC1,thiopropazate,-4.7,log(mol/L),-4.7,log(mol/L),-,446.01600000000025,6,0,4.513500000000004,1,1.9952623149688786e-05
CCN1c2ccccc2N(C)C(=S)c2cccnc21,RTI 17,-4.706,log(mol/L),-4.706,log(mol/L),-,269.373,3,0,3.3649000000000022,1,1.967886289706843e-05
CC(=O)C1(O)CCC2C3CCC4=CC(=O)CCC4(C)C3CCC21C,17-a-hydroxyprogesterone,-4.71,log(mol/L),-4.71,log(mol/L),68-96-2,330.4680000000001,3,1,3.8384000000000027,1,1.9498445997580456e-05
CCCCC(=O)OC1(C(=O)CO)C(C)CC2C3CCC4=CC(=O)C=CC4(C)C3(F)C(O)CC21C,betamethasone-17-valerate,-4.71,log(mol/L),-4.71,log(mol/L),-,476.58500000000026,6,2,3.6368000000000027,1,1.9498445997580456e-05
CCCCC(=O)OC1(C(=O)CO)C(C)CC2C3CCC4=CC(=O)C=CC4(C)C3(F)C(O)CC21C,betamethasone-17-valerate,-4.71,log(mol/L),-4.71,log(mol/L),2152-44-5,476.58500000000026,6,2,3.6368000000000027,1,1.9498445997580456e-05
CCOC(=O)CCN(SN(C)C(=O)Oc1cccc2c1OC(C)(C)C2)C(C)C,Benfuracarb,-4.71,log(mol/L),-4.71,log(mol/L),-,410.53600000000023,7,0,4.057500000000004,1,1.9498445997580456e-05
Cc1cc2ccccc2cc1C,"2,3-dimethylnaphthalene",-4.72,log(mol/L),-4.72,log(mol/L),581-40-8,156.22799999999998,0,0,3.456640000000002,1,1.9054607179632484e-05
Cc1cc2ccccc2cc1C,"2,3-dimethylnaphthalene",-4.72,log(mol/L),-4.72,log(mol/L),-,156.22799999999998,0,0,3.456640000000002,1,1.9054607179632484e-05
Oc1c2ccccc2cc2ccccc12,1-anthranol,-4.73,log(mol/L),-4.73,log(mol/L),529-86-2,194.23299999999998,1,1,3.6986000000000017,1,1.8620871366628657e-05
Oc1c2ccccc2cc2ccccc12,9-anthrol,-4.73,log(mol/L),-4.73,log(mol/L),-,194.23299999999998,1,1,3.6986000000000017,1,1.8620871366628657e-05
CCOC(=O)c1cncn1C(C)c1ccccc1,Etomidate,-4.735,log(mol/L),-4.735,log(mol/L),-,244.294,4,0,2.669100000000001,1,1.8407720014689545e-05
CC(C)CC(C)(C)C,"2,2,4-Trimethylpentane",-4.74,log(mol/L),-4.74,log(mol/L),-,114.23199999999999,0,0,3.0786000000000016,1,1.8197008586099827e-05
CCCC1CCCC1,n-propylcyclopentane,-4.74,log(mol/L),-4.74,log(mol/L),-,112.21600000000001,0,0,2.976700000000002,1,1.8197008586099827e-05
CN1CCCC(CN2c3ccccc3Sc3ccccc32)C1,mepazine,-4.74,log(mol/L),-4.74,log(mol/L),-,310.4660000000001,3,0,4.631100000000004,1,1.8197008586099827e-05
CCCC1CCCC1,n-propylcyclopentane,-4.74,log(mol/L),-4.74,log(mol/L),2040-96-2,112.21600000000001,0,0,2.976700000000002,1,1.8197008586099827e-05
CN1CCCC(CN2c3ccccc3Sc3ccccc32)C1,mepazine,-4.74,log(mol/L),-4.74,log(mol/L),60-89-9,310.4660000000001,3,0,4.631100000000004,1,1.8197008586099827e-05
Cc1cccc2c(C)cccc12,"1,5-dimethylnaphthalene",-4.74,log(mol/L),-4.74,log(mol/L),571-61-9,156.228,0,0,3.456640000000002,1,1.8197008586099827e-05
Cc1cccc2c(C)cccc12,"1,5-dimethylnaphthalene",-4.74,log(mol/L),-4.74,log(mol/L),-,156.228,0,0,3.456640000000002,1,1.8197008586099827e-05
CCCC1CCCC1,Propylcyclopentane,-4.74,log(mol/L),-4.74,log(mol/L),-,112.21600000000001,0,0,2.976700000000002,1,1.8197008586099827e-05
CC12CCC3C(CCC4CC(=O)CCC43C)C1CCC2O,Stanolone,-4.743,log(mol/L),-4.743,log(mol/L),-,290.44699999999995,2,1,3.9591000000000034,1,1.8071741260109257e-05
CCN1c2ccccc2C(=O)N(C)c2ccccc21,RTI 19,-4.749,log(mol/L),-4.749,log(mol/L),-,252.31699999999998,2,0,3.4346000000000023,1,1.782378767448091e-05
CN1CCCC(CN2c3ccccc3Sc3ccccc32)C1,Pecazine,-4.75,log(mol/L),-4.75,log(mol/L),-,310.4660000000001,3,0,4.631100000000004,1,1.778279410038923e-05
CCOP(=S)(OCC)SCSC(C)(C)C,Terbufos,-4.755,log(mol/L),-4.755,log(mol/L),-,288.44,5,0,4.506300000000004,1,1.757923613958693e-05
COC(=O)C1=C(C)NC(C)=C(C(=O)OC)C1c1ccccc1[N+](=O)[O-],Nifedipine,-4.76,log(mol/L),-4.76,log(mol/L),-,346.33900000000006,7,1,2.1756,1,1.7378008287493764e-05
CC(C)Nc1cccnc1N1CCN(C(=O)c2cc3cc(NS(C)(=O)=O)ccc3[nH]2)CC1,Delavirdine,-4.76,log(mol/L),-4.76,log(mol/L),-,456.5720000000002,6,3,2.7171000000000003,1,1.7378008287493764e-05
CCCCN(C)C(=O)Nc1ccc(Cl)c(Cl)c1,neburon,-4.77,log(mol/L),-4.77,log(mol/L),555-37-3,275.179,1,1,4.257200000000004,1,1.698243652461746e-05
CCCCN(C)C(=O)Nc1ccc(Cl)c(Cl)c1,neburon,-4.77,log(mol/L),-4.77,log(mol/L),-,275.179,1,1,4.257200000000004,1,1.698243652461746e-05
CC(=O)CC(c1ccccc1)c1c(O)c2ccccc2oc1=O,Warfarin,16.455,?M/L,-4.784,log(mol/L),-,308.3330000000001,4,1,3.609600000000003,1,1.6443717232149325e-05
CC(CN(C)C)CN1c2ccccc2CCc2ccccc21,Trimipramine,16.2552,?M/L,-4.789,log(mol/L),-,294.442,2,0,4.121000000000003,1,1.625548755750485e-05
C#CC1(O)CCC2C3CCC4=CC(=O)CCC4C3CCC21C,norethisterone acetate,-4.79,log(mol/L),-4.79,log(mol/L),51-98-9,298.42600000000004,2,1,3.4925000000000024,1,1.62181009735893e-05
C#CC1(OC(C)=O)CCC2C3CCC4=CC(=O)CCC4C3CCC21C,norethisterone acetate,-4.79,log(mol/L),-4.79,log(mol/L),51-98-9,340.46300000000014,3,0,4.0633000000000035,1,1.62181009735893e-05
O=C1c2ccccc2Cc2ccccc2N1CCF,RTI 20,-4.799,log(mol/L),-4.799,log(mol/L),-,255.29199999999997,1,0,3.2071000000000014,1,1.5885467485977773e-05
C#CC1(OC(C)=O)CCC2C3CCC4=CC(=O)CCC4C3CCC21C,Norethindrone acetate,-4.8,log(mol/L),-4.8,log(mol/L),-,340.46300000000014,3,0,4.0633000000000035,1,1.584893192461114e-05
CCCCCCCCCCCCO,1-Dodecanol,-4.8,log(mol/L),-4.8,log(mol/L),-,186.33899999999997,1,1,3.8996000000000035,1,1.584893192461114e-05
CC12CC1(C)C(=O)N(c1cc(Cl)cc(Cl)c1)C2=O,Procymidone,-4.8,log(mol/L),-4.8,log(mol/L),-,284.14200000000005,2,0,3.2829000000000024,1,1.584893192461114e-05
CC(C)C(C)C(C)C,"2,3,4-Trimethylpentane",-4.8,log(mol/L),-4.8,log(mol/L),-,114.23199999999999,0,0,2.9345000000000017,1,1.584893192461114e-05
COC(=O)Nc1cccc(OC(=O)Nc2cccc(C)c2)c1,Phenmedipham,-4.8,log(mol/L),-4.8,log(mol/L),-,300.314,4,2,3.784220000000002,1,1.584893192461114e-05
CN1C(C(=O)Nc2ccccn2)=C(O)c2ccccc2S1(=O)=O,Piroxicam,15.7828,?M/L,-4.802,log(mol/L),-,331.35300000000007,5,2,1.5809999999999997,1,1.57761126969935e-05
COC(=O)Nc1cccc(OC(=O)Nc2cccc(C)c2)c1,Phenmedipham,-4.805,log(mol/L),-4.805,log(mol/L),-,300.314,4,2,3.784220000000002,1,1.5667510701081502e-05
Brc1ccc(Br)c(Br)c1,"1,2,4-tribromobenzene",4.9,mg/L,-4.808,log(mol/L),615-54-3,314.80199999999996,0,0,3.974100000000001,1,1.555965631605075e-05
CCCCCCCI,1-iodoheptane,-4.81,log(mol/L),-4.81,log(mol/L),4282-40-0,226.101,0,0,3.3918000000000026,1,1.5488166189124828e-05
CCCCCCCI,1-iodoheptane,-4.81,log(mol/L),-4.81,log(mol/L),-,226.101,0,0,3.3918000000000026,1,1.5488166189124828e-05
CC(C(=O)O)c1ccc(N2Cc3ccccc3C2=O)cc1,Indoprofen,-4.82,log(mol/L),-4.82,log(mol/L),-,281.311,2,1,3.0351000000000017,1,1.5135612484362071e-05
COP(=S)(OC)Oc1nc(Cl)c(Cl)cc1Cl,chlorpyriphos methyl,-4.82,log(mol/L),-4.82,log(mol/L),5598-13-0,322.53700000000003,5,0,3.9379000000000017,1,1.5135612484362071e-05
CC(C)(C)C(O)C(Oc1ccc(-c2ccccc2)cc1)n1cncn1,-,0.69897,log(mg/L),-4.829,log(mol/L),55179-31-2,337.423,5,1,3.929700000000002,1,1.4825180851459545e-05
CC(C)(C)C(O)C(Oc1ccc(-c2ccccc2)cc1)n1cncn1,Bitertanol,5.0,mg/L,-4.829,log(mol/L),55179-31-2,337.423,5,1,3.929700000000002,1,1.4825180851459545e-05