SMILES,NAME,Water solubility,UNIT {Water solubility},Solubility_log(mol/L),UNIT {Water solubility}.1,CASRN,MolW(Da),NumHAcceptors,NumHDonors,LogP,Lipinski_rule,Solubility(mol/L)
CNc1cnn(-c2cccc(C(F)(F)F)c2)c(=O)c1Cl,norflurazon,-4.046,log(mol/L),-4.046,log(mol/L),-,303.67100000000005,4,1,2.9464000000000006,1,8.994975815300346e-05
O=C1C(Cl)C(CCl)CN1c1cccc(C(F)(F)F)c1,Flurochloridone,-4.047,log(mol/L),-4.047,log(mol/L),-,312.118,1,0,3.514400000000002,1,8.974287945007491e-05
CC12CCC(=O)C=C1CCC1C2CCC2(C)C(O)CCC12,Testosterone,-4.05,log(mol/L),-4.05,log(mol/L),-,288.43100000000004,2,1,3.8792000000000026,1,8.912509381337459e-05
CC(C)(C)C(O)C(Cc1ccc(Cl)cc1)n1cncn1,Paclobutrazol,26.0,mg/L,-4.053,log(mol/L),76738-62-0,293.798,4,1,3.122300000000001,1,8.851156098308356e-05
CN(C)Cc1c[nH]c2ccc(Br)cc12,bromogramine,88.0647,?M/L,-4.055,log(mol/L),-,253.14299999999997,1,1,2.992000000000001,1,8.810488730080147e-05
CCNc1nc(Cl)nc(N(CC)CC)n1,trietazine,-4.06,log(mol/L),-4.06,log(mol/L),1912-26-1,229.71499999999997,5,1,1.803,1,8.709635899560814e-05
CCCCc1ccccc1,Butylbenzene,-4.06,log(mol/L),-4.06,log(mol/L),-,134.22199999999998,0,0,3.0292000000000012,1,8.709635899560814e-05
CCCCc1ccccc1,n-butylbenzene,-4.06,log(mol/L),-4.06,log(mol/L),104-51-8,134.22199999999998,0,0,3.0292000000000012,1,8.709635899560814e-05
CCNc1nc(Cl)nc(N(CC)CC)n1,trietazine,-4.06,log(mol/L),-4.06,log(mol/L),-,229.71499999999997,5,1,1.803,1,8.709635899560814e-05
CCCCc1ccccc1,n-butylbenzene,-4.06,log(mol/L),-4.06,log(mol/L),-,134.22199999999998,0,0,3.0292000000000012,1,8.709635899560814e-05
Brc1ccc(Br)cc1,"1,4-dibromobenzene",-4.07,log(mol/L),-4.07,log(mol/L),106-37-6,235.90599999999998,0,0,3.2116000000000007,1,8.51138038202376e-05
Brc1ccc(Br)cc1,"1,4-dibromobenzene",-4.07,log(mol/L),-4.07,log(mol/L),-,235.90599999999998,0,0,3.2116000000000007,1,8.51138038202376e-05
CC12CCC(=O)C=C1CCC1C2CCC2(C)C(O)CCC12,Testosterone,-4.07,log(mol/L),-4.07,log(mol/L),58-22-0,288.43100000000004,2,1,3.8792000000000026,1,8.51138038202376e-05
CCC(=C(CC)c1ccc(O)cc1)c1ccc(O)cc1,Diethylstilbestrol,-4.07,log(mol/L),-4.07,log(mol/L),-,268.356,2,2,4.828600000000005,1,8.51138038202376e-05
Brc1ccc(Br)cc1,"1,4-dibromobenzene",20.0,mg/L,-4.072,log(mol/L),106-37-6,235.90599999999998,0,0,3.2116000000000007,1,8.472274141405963e-05
c1ccc(Cc2ccccc2)cc1,diphenylmethane,-4.08,log(mol/L),-4.08,log(mol/L),-,168.239,0,0,3.277400000000002,1,8.317637711026709e-05
Cc1cccc(Nc2ccccc2C(=O)O)c1C,mefenamic acid,-4.08,log(mol/L),-4.08,log(mol/L),-,241.29,2,2,3.7452400000000017,1,8.317637711026709e-05
CC(C)N(C(=O)SCC(Cl)=CCl)C(C)C,diallate,-4.08,log(mol/L),-4.08,log(mol/L),2303-16-4,270.225,2,0,4.277400000000004,1,8.317637711026709e-05
Cc1nnc2n1-c1ccc(Cl)cc1C(c1ccccc1Cl)=NC2,Triazolam,-4.08,log(mol/L),-4.08,log(mol/L),28911-01-5,343.21700000000004,4,0,4.233520000000002,1,8.317637711026709e-05
CC1OC(OC2C(O)CC(OC3C(O)CC(OC4CCC5(C)C(CCC6C5CC(O)C5(C)C(C7=CC(=O)OC7)CCC65O)C4)OC3C)OC2C)CC(O)C1O,"Digoxin (L1=41,8mg/mL, L2=68,2mg/mL, Z=40,1mg/mL)",-4.081,log(mol/L),-4.081,log(mol/L),-,780.9490000000002,14,6,2.218100000000003,0,8.298507675144218e-05
S=C=Nc1cccc(Br)c1,"BENZENE, 1-BROMO-3-ISOTHIOCYANATO-",17.6,mg/L,-4.085,log(mol/L),2131-59-1,214.087,2,0,3.1834000000000007,1,8.222426499470712e-05
Cc1nnc2n1-c1ccc(Cl)cc1C(c1ccccc1Cl)=NC2,Triazolam,-4.09,log(mol/L),-4.09,log(mol/L),-,343.21700000000004,4,0,4.233520000000002,1,8.128305161640995e-05
CC12CCC(=O)C=C1CCC1C2CCC2(C)C(O)CCC12,Testosterone,-4.09,log(mol/L),-4.09,log(mol/L),58-22-0,288.43100000000004,2,1,3.8792000000000026,1,8.128305161640995e-05
Cc1ccc(C(=O)c2ccc(CC(=O)O)n2C)cc1,tolmetin,80.9303,?M/L,-4.092,log(mol/L),-,257.289,3,1,2.1916200000000003,1,8.09095899178383e-05
O=C1NC(=O)C(c2ccccc2)(c2ccccc2)N1,Phenytoin,-4.097,log(mol/L),-4.097,log(mol/L),-,252.27300000000002,2,2,1.7696,1,7.998342550070276e-05
CC(=O)C1(O)CCC2C3CC(C)C4=CC(=O)C=CC4(C)C3(F)C(O)CC21C,Fluoromethalone,-4.099,log(mol/L),-4.099,log(mol/L),-,376.46800000000013,4,2,2.923300000000001,1,7.961593504173184e-05
Cc1nnc2n1-c1ccc(Cl)cc1C(c1ccccc1Cl)=NC2,Halcion,-4.1,log(mol/L),-4.1,log(mol/L),-,343.21700000000004,4,0,4.233520000000002,1,7.943282347242822e-05
CCCCCCCCCC(=O)OCC,ethyl caprinate,-4.1,log(mol/L),-4.1,log(mol/L),110-38-3,200.32199999999997,2,0,3.6902000000000026,1,7.943282347242822e-05
CC(=O)C1(O)CCC2C3CC(C)C4=CC(=O)C=CC4(C)C3(F)C(O)CC21C,fluoromethasone,-4.1,log(mol/L),-4.1,log(mol/L),426-13-1,376.46800000000013,4,2,2.923300000000001,1,7.943282347242822e-05
CSc1nc(NC(C)C)nc(NC(C)C)n1,prometryn,-4.1,log(mol/L),-4.1,log(mol/L),-,241.364,6,2,2.2340999999999998,1,7.943282347242822e-05
CSc1nc(NC(C)C)nc(NC(C)C)n1,prometryn,-4.1,log(mol/L),-4.1,log(mol/L),7287-19-6,241.364,6,2,2.2340999999999998,1,7.943282347242822e-05
CCCCCCCCCC(=O)OCC,Ethyl decanoate,-4.1,log(mol/L),-4.1,log(mol/L),-,200.32199999999997,2,0,3.6902000000000026,1,7.943282347242822e-05
CC(C)(C)C(O)C(Cc1ccc(Cl)cc1)n1cncn1,Paclobutrazol,22.9,mg/L,-4.108,log(mol/L),76738-62-0,293.798,4,1,3.122300000000001,1,7.798301105232594e-05
CC(C)(C)C(=O)C1C(=O)c2ccccc2C1=O,pindone,-4.11,log(mol/L),-4.11,log(mol/L),83-26-1,230.26299999999998,3,0,2.2970000000000006,1,7.762471166286911e-05
CCOP(=S)(OCC)SCSCC,phorate,-4.11,log(mol/L),-4.11,log(mol/L),-,260.38599999999997,5,0,3.727700000000003,1,7.762471166286911e-05
COc1ccc2c(c1OC)C(=O)OC2C1c2cc3c(cc2CCN1C)OCO3,hydrastine,-4.11,log(mol/L),-4.11,log(mol/L),118-08-1,383.4000000000002,7,0,2.8732000000000015,1,7.762471166286911e-05
CC1CCCCC1NC(=O)Nc1ccccc1,siduron,-4.11,log(mol/L),-4.11,log(mol/L),-,232.32700000000003,1,2,3.386800000000001,1,7.762471166286911e-05
CCOP(=S)(OCC)SCSCC,phorate,-4.11,log(mol/L),-4.11,log(mol/L),298-02-2,260.38599999999997,5,0,3.727700000000003,1,7.762471166286911e-05
CC1CCCCC1NC(=O)Nc1ccccc1,siduron,-4.11,log(mol/L),-4.11,log(mol/L),1982-49-6,232.32700000000003,1,2,3.386800000000001,1,7.762471166286911e-05
COc1ccc2c(c1OC)C(=O)OC2C1c2cc3c(cc2CCN1C)OCO3,hydrastine,-4.11,log(mol/L),-4.11,log(mol/L),-,383.4000000000002,7,0,2.8732000000000015,1,7.762471166286911e-05
CCN1c2ncccc2C(=O)N(C)c2ccc(Cl)nc21,-,-4.114,log(mol/L),-4.114,log(mol/L),-,288.738,4,0,2.878000000000001,1,7.691304402866098e-05
CC12CCC3C(CC=C4CC(O)CCC43C)C1CCC2=O,prasterone,-4.12,log(mol/L),-4.12,log(mol/L),-,288.43100000000004,2,1,3.8792000000000026,1,7.585775750291836e-05
CC(C)Cc1ccccc1,isobutylbenzene,-4.12,log(mol/L),-4.12,log(mol/L),-,134.22199999999998,0,0,2.8851000000000013,1,7.585775750291836e-05
CC12CCC3C(CC=C4CC(O)CCC43C)C1CCC2=O,prasterone,-4.12,log(mol/L),-4.12,log(mol/L),53-43-0,288.43100000000004,2,1,3.8792000000000026,1,7.585775750291836e-05
CC(C)Cc1ccccc1,isobutylbenzene,-4.12,log(mol/L),-4.12,log(mol/L),538-93-2,134.22199999999998,0,0,2.8851000000000013,1,7.585775750291836e-05
CCCSP(=O)(OCC)Oc1ccc(Br)cc1Cl,Profenofos,28.0,mg/L,-4.125,log(mol/L),41198-08-7,373.63599999999997,4,0,5.7691000000000034,0,7.498942093324559e-05
CC(=O)OCC(=O)C1(O)C(OC(C)=O)CC2C3CCC4=CC(=O)C=CC4(C)C3(F)C(O)CC21C,triamcinolone diacetate,-4.13,log(mol/L),-4.13,log(mol/L),67-78-7,478.5130000000003,8,2,1.7620999999999991,1,7.413102413009176e-05
CC(=O)OCC(=O)C1(O)C(OC(C)=O)CC2C3CCC4=CC(=O)C=CC4(C)C3(F)C(O)CC21C,triamcinolone diacetate,-4.13,log(mol/L),-4.13,log(mol/L),-,478.5130000000003,8,2,1.7620999999999991,1,7.413102413009176e-05
Clc1ccc2ccccc2c1,2-Chloronapthalene,-4.14,log(mol/L),-4.14,log(mol/L),-,162.61899999999997,0,0,3.4932000000000016,1,7.244359600749906e-05
Clc1ccc2ccccc2c1,2-chloronaphthalene,-4.14,log(mol/L),-4.14,log(mol/L),91-58-7,162.61899999999997,0,0,3.4932000000000016,1,7.244359600749906e-05
Cc1ccc(C)c2ccccc12,"1,4-dimethylnaphthalene",-4.14,log(mol/L),-4.14,log(mol/L),571-58-4,156.228,0,0,3.456640000000002,1,7.244359600749906e-05
Cc1ccc(C)c2ccccc12,"1,4-dimethylnaphthalene",-4.14,log(mol/L),-4.14,log(mol/L),-,156.228,0,0,3.456640000000002,1,7.244359600749906e-05
OCCN1CCN(CCCN2c3ccccc3Sc3ccc(C(F)(F)F)cc32)CC1,Fluphenazine,-4.15,log(mol/L),-4.15,log(mol/L),69-23-8,437.5310000000002,5,1,4.308100000000003,1,7.079457843841373e-05
CCC(C)(C)c1ccccc1,t-amylbenzene,-4.15,log(mol/L),-4.15,log(mol/L),-,148.24899999999997,0,0,3.374200000000002,1,7.079457843841373e-05
OCCN1CCN(CCCN2c3ccccc3Sc3ccc(Cl)cc32)CC1,Perphenazine,-4.15,log(mol/L),-4.15,log(mol/L),-,403.9790000000002,5,1,3.942700000000003,1,7.079457843841373e-05
OCCN1CCN(CCCN2c3ccccc3Sc3ccc(C(F)(F)F)cc32)CC1,Fluphenazine,-4.15,log(mol/L),-4.15,log(mol/L),-,437.5310000000002,5,1,4.308100000000003,1,7.079457843841373e-05
C1CCCCCCC1,cyclooctane,-4.15,log(mol/L),-4.15,log(mol/L),-,112.21600000000001,0,0,3.120800000000002,1,7.079457843841373e-05
C1CCCCCCC1,cyclooctane,-4.15,log(mol/L),-4.15,log(mol/L),292-64-8,112.21600000000001,0,0,3.120800000000002,1,7.079457843841373e-05
CC(C)(C)Cc1ccccc1,t-Pentylbenzene,-4.15,log(mol/L),-4.15,log(mol/L),-,148.249,0,0,3.2752000000000017,1,7.079457843841373e-05
CCC(C)(C)c1ccccc1,t-amylbenzene,-4.15,log(mol/L),-4.15,log(mol/L),2049-95-8,148.24899999999997,0,0,3.374200000000002,1,7.079457843841373e-05
CCCOP(=S)(OCCC)SCC(=O)N1CCCCC1C,Piperophos,-4.15,log(mol/L),-4.15,log(mol/L),-,353.4900000000001,5,0,4.198300000000004,1,7.079457843841373e-05
CC(C(=O)O)c1ccc(-c2ccccc2)c(F)c1,Flurbiprofen,70.5019,?M/L,-4.152,log(mol/L),-,244.265,1,1,3.6808000000000023,1,7.046930689671467e-05
CCCCc1c(C)nc(NCC)nc1OS(=O)(=O)N(C)C,bupirimate,-4.16,log(mol/L),-4.16,log(mol/L),41483-43-6,316.4270000000001,6,1,1.74462,1,6.918309709189363e-05
CCCCc1c(C)nc(NCC)nc1OS(=O)(=O)N(C)C,bupirimate,-4.16,log(mol/L),-4.16,log(mol/L),-,316.4270000000001,6,1,1.74462,1,6.918309709189363e-05
CN1C(C(=O)Nc2ccccn2)=C(O)c2ccccc2S1(=O)=O,Piroxicam,-4.16,log(mol/L),-4.16,log(mol/L),36322-90-4,331.35300000000007,5,2,1.5809999999999997,1,6.918309709189363e-05
COc1ccc2cc(C(C)C(=O)O)ccc2c1,naprosyn,-4.16,log(mol/L),-4.16,log(mol/L),22204-53-1,230.26299999999998,2,1,3.036500000000001,1,6.918309709189363e-05
CN1C(C(=O)Nc2ccccn2)=C(O)c2ccccc2S1(=O)=O,Piroxicam,-4.16,log(mol/L),-4.16,log(mol/L),-,331.35300000000007,5,2,1.5809999999999997,1,6.918309709189363e-05
COc1ccc(Oc2ccc(NC(=O)N(C)C)cc2)cc1,difenoxuron,-4.16,log(mol/L),-4.16,log(mol/L),14214-32-5,286.331,3,1,3.581000000000002,1,6.918309709189363e-05
CC12CCC3C(CCC4CC(O)CCC43C)C1CCC2=O,epiandrosterone,-4.16,log(mol/L),-4.16,log(mol/L),481-29-8,290.447,2,1,3.959100000000003,1,6.918309709189363e-05
OCCN1CCN(CCCN2c3ccccc3Sc3ccc(Cl)cc32)CC1,Perphenazine,-4.16,log(mol/L),-4.16,log(mol/L),58-39-9,403.9790000000002,5,1,3.942700000000003,1,6.918309709189363e-05
COc1ccc(Oc2ccc(NC(=O)N(C)C)cc2)cc1,difenoxuron,-4.16,log(mol/L),-4.16,log(mol/L),-,286.331,3,1,3.581000000000002,1,6.918309709189363e-05
CC12CCC3C(CCC4CC(O)CCC43C)C1CCC2=O,epiandrosterone,-4.16,log(mol/L),-4.16,log(mol/L),-,290.447,2,1,3.959100000000003,1,6.918309709189363e-05
O=C(O)c1cccnc1Nc1cccc(C(F)(F)F)c1,Niflumic acid,-4.17,log(mol/L),-4.17,log(mol/L),-,282.221,3,2,3.542200000000001,1,6.760829753919819e-05
c1ccc(Cc2ccccc2)cc1,diphenylmethane,-4.17,log(mol/L),-4.17,log(mol/L),-,168.239,0,0,3.277400000000002,1,6.760829753919819e-05
O=C(O)c1cccnc1Nc1cccc(C(F)(F)F)c1,Niflumic acid,-4.17,log(mol/L),-4.17,log(mol/L),4394-00-7,282.221,3,2,3.542200000000001,1,6.760829753919819e-05
CCc1cccc2ccccc12,1-ethylnaphthalene,-4.17,log(mol/L),-4.17,log(mol/L),-,156.22799999999998,0,0,3.4022000000000023,1,6.760829753919819e-05
c1ccc(Cc2ccccc2)cc1,diphenylmethane,-4.17,log(mol/L),-4.17,log(mol/L),101-81-5,168.239,0,0,3.277400000000002,1,6.760829753919819e-05
CCc1cccc2ccccc12,1-ethylnaphthalene,-4.17,log(mol/L),-4.17,log(mol/L),1127-76-0,156.22799999999998,0,0,3.4022000000000023,1,6.760829753919819e-05
CC(=O)SC1CC2=CC(=O)CCC2(C)C2CCC3(C)C(CCC34CCC(=O)O4)C12,spironolactone,-4.173,log(mol/L),-4.173,log(mol/L),-,416.58300000000025,5,0,4.852300000000005,1,6.714288529259523e-05
COC(=O)C1(O)c2ccccc2-c2ccc(Cl)cc21,Methyl-2-chloro-9-hydroxyfluorene-9-carboxylate,-4.18,log(mol/L),-4.18,log(mol/L),2536-31-4,274.70300000000003,3,1,2.729300000000001,1,6.606934480075965e-05
COP(=S)(OC)SCn1nnc2ccccc2c1=O,-,1.320146,log(mg/L),-4.181,log(mol/L),86-50-0,317.33200000000005,8,0,1.9994999999999998,1,6.591738952443213e-05
COP(=S)(OC)SCn1nnc2ccccc2c1=O,methyl azinphos,20.9,mg/L,-4.181,log(mol/L),86-50-0,317.33200000000005,8,0,1.9994999999999998,1,6.591738952443213e-05
CC(C)c1ccccc1Br,"BENZENE, 1-BROMO-2-(1-METHYLETHYL)-",12.9,mg/L,-4.188,log(mol/L),7073-94-1,199.09099999999995,0,0,3.5725000000000025,1,6.486344335482387e-05
CCCCOCN(C(=O)CCl)c1c(CC)cccc1CC,butachlor,-4.19,log(mol/L),-4.19,log(mol/L),-,311.85300000000007,2,0,4.1574000000000035,1,6.456542290346549e-05
CCCCOCN(C(=O)CCl)c1c(CC)cccc1CC,butachlor,-4.19,log(mol/L),-4.19,log(mol/L),23184-66-9,311.85300000000007,2,0,4.1574000000000035,1,6.456542290346549e-05
CN(C)CCCN1c2ccccc2CCc2ccccc21,Imipramine,-4.19,log(mol/L),-4.19,log(mol/L),-,280.415,2,0,3.8750000000000027,1,6.456542290346549e-05
O=CNC(N1CCN(C(NC=O)C(Cl)(Cl)Cl)CC1)C(Cl)(Cl)Cl,triforine,-4.19,log(mol/L),-4.19,log(mol/L),26644-46-2,434.9660000000001,4,2,1.488600000000001,1,6.456542290346549e-05
CN(C)CCCN1c2ccccc2CCc2ccccc21,Imipramine,-4.19,log(mol/L),-4.19,log(mol/L),50-49-7,280.415,2,0,3.8750000000000027,1,6.456542290346549e-05
O=CNC(N1C=CN(C(NC=O)C(Cl)(Cl)Cl)C=C1)C(Cl)(Cl)Cl,triforine,-4.19,log(mol/L),-4.19,log(mol/L),-,430.93399999999997,4,2,2.431000000000001,1,6.456542290346549e-05
Nc1ccc(N=Nc2ccccc2)c(N)n1,Phenazopyridine,64.0651,?M/L,-4.193,log(mol/L),-,213.24400000000003,5,2,2.6613999999999995,1,6.412095765851622e-05
CCOP(=S)(NC(C)C)Oc1ccccc1C(=O)OC(C)C,Isofenphos,-4.194,log(mol/L),-4.194,log(mol/L),-,345.4010000000002,5,1,3.8896000000000033,1,6.397348354826482e-05
CC(C)OP(=S)(OC(C)C)SCCNS(=O)(=O)c1ccccc1,bensulide,-4.2,log(mol/L),-4.2,log(mol/L),-,397.52400000000006,6,1,3.7726000000000024,1,6.309573444801929e-05
CC(C)OP(=S)(OC(C)C)SCCNS(=O)(=O)c1ccccc1,bensulide,-4.2,log(mol/L),-4.2,log(mol/L),741-58-2,397.52400000000006,6,1,3.7726000000000024,1,6.309573444801929e-05
CCN1c2ncccc2C(=O)Nc2c(C(F)(F)F)cc(C)nc21,RTI 13,-4.207,log(mol/L),-4.207,log(mol/L),-,322.29,4,1,3.5275200000000018,1,6.208690342300637e-05
CC(=O)OCC(=O)C1(O)CCC2C3CCC4=CC(=O)CCC4(C)C3C(=O)CC21C,cortisone acetate,-4.21,log(mol/L),-4.21,log(mol/L),-,402.48700000000025,6,1,2.560600000000001,1,6.165950018614822e-05
O=C(Nc1ccccc1)c1ccccc1I,benodanil,-4.21,log(mol/L),-4.21,log(mol/L),15310-01-7,323.133,1,1,3.5435000000000016,1,6.165950018614822e-05
Cc1ccc(S(=O)(=O)NC(=O)NC2CCCCC2)cc1,tolcyclamide,-4.21,log(mol/L),-4.21,log(mol/L),-,296.39200000000005,3,2,2.31562,1,6.165950018614822e-05
O=C(Nc1ccccc1)c1ccccc1I,benodanil,-4.21,log(mol/L),-4.21,log(mol/L),-,323.133,1,1,3.5435000000000016,1,6.165950018614822e-05
Cc1ccc(S(=O)(=O)NC(=O)NC2CCCCC2)cc1,tolcyclamide,-4.21,log(mol/L),-4.21,log(mol/L),664-95-9,296.39200000000005,3,2,2.31562,1,6.165950018614822e-05
COc1ccc2c(c1)N(CC(C)CN(C)C)c1ccccc1S2,methotrimeprazine,-4.22,log(mol/L),-4.22,log(mol/L),60-99-1,328.481,4,0,4.495600000000004,1,6.0255958607435806e-05
Nc1cccc2nc3ccccc3cc12,1-aminoacridine,-4.22,log(mol/L),-4.22,log(mol/L),578-06-3,194.23700000000002,2,1,2.970200000000001,1,6.0255958607435806e-05
Nc1cccc2nc3ccccc3cc12,1-aminoacridine,-4.22,log(mol/L),-4.22,log(mol/L),-,194.23700000000002,2,1,2.970200000000001,1,6.0255958607435806e-05
COc1ccc2c(c1)N(CC(C)CN(C)C)c1ccccc1S2,Levomepromazine,-4.22,log(mol/L),-4.22,log(mol/L),-,328.481,4,0,4.495600000000004,1,6.0255958607435806e-05
CCC(C)(C)CC,"3,3-Dimethylpentane",-4.23,log(mol/L),-4.23,log(mol/L),-,100.20499999999998,0,0,2.832600000000001,1,5.888436553555884e-05
ClC=C(Cl)C(Cl)=C(Cl)Cl,pentachlorobutadiene,-4.23,log(mol/L),-4.23,log(mol/L),55880-77-8,226.317,0,0,4.1909,1,5.888436553555884e-05
CCOP(=S)(OCC)SCCSCC,disulfoton,-4.23,log(mol/L),-4.23,log(mol/L),298-04-4,274.413,5,0,3.7702000000000027,1,5.888436553555884e-05
CCOP(=S)(OCC)SCCSCC,disulfoton,-4.23,log(mol/L),-4.23,log(mol/L),-,274.413,5,0,3.7702000000000027,1,5.888436553555884e-05
ClC(Cl)=CC(Cl)=C(Cl)Cl,pentachlorobutadiene,-4.23,log(mol/L),-4.23,log(mol/L),55880-77-8,226.31699999999998,0,0,4.1909,1,5.888436553555884e-05
N#Cc1c(Cl)cccc1Cl,"2,6-dichlorobenzonitrile",-4.24,log(mol/L),-4.24,log(mol/L),1194-65-6,172.01399999999998,1,0,2.8650800000000007,1,5.7543993733715664e-05
N#Cc1c(Cl)cccc1Cl,"2,6-dichlorobenzonitrile",-4.24,log(mol/L),-4.24,log(mol/L),-,172.01399999999998,1,0,2.8650800000000007,1,5.7543993733715664e-05
C#CCCCCCCC,1-nonyne,-4.24,log(mol/L),-4.24,log(mol/L),-,124.227,0,0,2.980100000000001,1,5.7543993733715664e-05
CNC(=O)Oc1cc(C(C)(C)C)cc(C(C)(C)C)c1,butacarb,-4.24,log(mol/L),-4.24,log(mol/L),-,263.381,2,1,3.999800000000003,1,5.7543993733715664e-05
CNC(=O)Oc1cc(C(C)(C)C)cc(C(C)(C)C)c1,butacarb,-4.24,log(mol/L),-4.24,log(mol/L),2655-19-8,263.381,2,1,3.999800000000003,1,5.7543993733715664e-05
Nc1ccc(N=Nc2ccccc2)c(N)n1,Phenazopyridine,-4.24,log(mol/L),-4.24,log(mol/L),-,213.24400000000003,5,2,2.6613999999999995,1,5.7543993733715664e-05
FC(F)(F)C(F)(F)F,HEXAFLUOROETHANE,7.78,mg/L,-4.249,log(mol/L),76-16-4,138.01000000000002,0,0,2.1109999999999998,1,5.636376558259549e-05
CCC1CCCCC1,ethylcyclohexane,-4.25,log(mol/L),-4.25,log(mol/L),-,112.21600000000001,0,0,2.976700000000002,1,5.623413251903491e-05
CCC1CCCCC1,ethylcyclohexane,-4.25,log(mol/L),-4.25,log(mol/L),1678-91-7,112.21600000000001,0,0,2.976700000000002,1,5.623413251903491e-05
FC(F)(F)C(F)(F)F,-,0.89,log(mg/L),-4.25,log(mol/L),76-16-4,138.01000000000002,0,0,2.1109999999999998,1,5.623413251903491e-05
C=C(C)C1CC=C(C)CC1,LIMONENE,7.57,mg/L,-4.255,log(mol/L),138-86-3,136.23799999999997,0,0,3.308900000000002,1,5.559042572704037e-05
COc1ccccc1OCCNCC(O)COc1cccc2[nH]c3ccccc3c12,Carvedilol,55.5,?M/L,-4.256,log(mol/L),-,406.482,5,3,3.738000000000002,1,5.546257129579105e-05
CC(C)CC(C)C,"2,4-dimethylpentane",-4.26,log(mol/L),-4.26,log(mol/L),108-08-7,100.20499999999998,0,0,2.6885000000000012,1,5.495408738576248e-05
CC12CCC3C(CCC4CC(=O)CCC43C)C1CCC2O,Stanolone,-4.26,log(mol/L),-4.26,log(mol/L),-,290.44699999999995,2,1,3.9591000000000034,1,5.495408738576248e-05
CC(CN1c2ccccc2Sc2ccccc21)N(C)C,Promethazine,-4.26,log(mol/L),-4.26,log(mol/L),-,284.428,3,0,4.239400000000003,1,5.495408738576248e-05
CC(C)CC(C)C,"2,4-dimethylpentane",-4.26,log(mol/L),-4.26,log(mol/L),-,100.20499999999998,0,0,2.6885000000000012,1,5.495408738576248e-05
CC(CN1c2ccccc2Sc2ccccc21)N(C)C,Promethazine,-4.26,log(mol/L),-4.26,log(mol/L),60-87-7,284.428,3,0,4.239400000000003,1,5.495408738576248e-05
C=C(C)C1CC=C(C)CC1,d-limonene,-4.26,log(mol/L),-4.26,log(mol/L),-,136.23799999999997,0,0,3.308900000000002,1,5.495408738576248e-05
CCCCC(O)(Cn1cncn1)c1ccc(Cl)cc1Cl,Hexaconazole,17.0,mg/L,-4.267,log(mol/L),79983-71-4,314.216,4,1,3.6629000000000023,1,5.407543229455804e-05
CCCCC(O)(Cn1cncn1)c1ccc(Cl)cc1Cl,-,1.230449,log(mg/L),-4.267,log(mol/L),79983-71-4,314.216,4,1,3.6629000000000023,1,5.407543229455804e-05
CC1CCCCC1C,"trans-1,2-dimethylcyclohexane",-4.27,log(mol/L),-4.27,log(mol/L),-,112.216,0,0,2.832600000000001,1,5.3703179637025325e-05
CC1CCCCC1C,"cis-1,2-dimethylcyclohexane",-4.27,log(mol/L),-4.27,log(mol/L),-,112.216,0,0,2.832600000000001,1,5.3703179637025325e-05
CCOC(=O)C(Cl)Cc1cc(-n2nc(C)n(C(F)F)c2=O)c(F)cc1Cl,Carfentrazone-ethyl,22.0,mg/L,-4.273,log(mol/L),128639-02-1,412.19500000000005,6,0,3.2430200000000022,1,5.3333489548762137e-05
CCOC(=O)C(Cl)Cc1cc(-n2nc(C)n(C(F)F)c2=O)c(F)cc1Cl,-,1.342423,log(mg/L),-4.273,log(mol/L),128639-02-1,412.19500000000005,6,0,3.2430200000000022,1,5.3333489548762137e-05
Oc1c(Cl)c(Cl)c(Cl)c(Cl)c1Cl,Pentachlorophenol,-4.28,log(mol/L),-4.28,log(mol/L),-,266.33799999999997,1,1,4.6592,1,5.248074602497723e-05
CC(=O)SC1CC2=CC(=O)CCC2(C)C2CCC3(C)C(CCC34CCC(=O)O4)C12,spironolactone,-4.28,log(mol/L),-4.28,log(mol/L),52-01-7,416.58300000000025,5,0,4.852300000000005,1,5.248074602497723e-05
Oc1c(Cl)c(Cl)c(Cl)c(Cl)c1Cl,Pentachlorophenol,-4.28,log(mol/L),-4.28,log(mol/L),87-86-5,266.33799999999997,1,1,4.6592,1,5.248074602497723e-05
CCC(C)C(C)C,"2,3-Dimethylpentane",-4.28,log(mol/L),-4.28,log(mol/L),-,100.20499999999998,0,0,2.6885000000000012,1,5.248074602497723e-05