SMILES,NAME,Water solubility,UNIT {Water solubility},Solubility_log(mol/L),UNIT {Water solubility}.1,CASRN,MolW(Da),NumHAcceptors,NumHDonors,LogP,Lipinski_rule,Solubility(mol/L)
Clc1ccc(Cl)c(-c2ccc(Cl)c(Cl)c2Cl)c1,"2,2?,3,4,5?-pcb",-7.91,log(mol/L),-7.91,log(mol/L),38380-02-8,326.437,0,0,6.620600000000001,0,1.2302687708123811e-08
Brc1ccc(Oc2ccc(Br)c(Br)c2)cc1Br,"3,3',4,4'-tetraBDE",-7.91,log(mol/L),-7.91,log(mol/L),-,485.795,1,0,6.528900000000002,0,1.2302687708123811e-08
Cc1ccc2cc3c(ccc4ccccc43)c3c2c1CC3,3-methylcholanthrene,-7.92,log(mol/L),-7.92,log(mol/L),56-49-5,268.359,0,0,5.553220000000004,0,1.202264434617413e-08
Clc1c(Cl)c(Cl)c(-c2ccccc2)c(Cl)c1Cl,"2,3,4,5,6-pcb",-7.92,log(mol/L),-7.92,log(mol/L),-,326.437,0,0,6.620600000000001,0,1.202264434617413e-08
Clc1cc(Cl)c(-c2c(Cl)cc(Cl)c(Cl)c2Cl)cc1Cl,"2,2',3,4,4',5',6-PCB",-7.92,log(mol/L),-7.92,log(mol/L),52663-69-1,395.3270000000001,0,0,7.9274000000000004,0,1.202264434617413e-08
Clc1cc(Cl)c(-c2c(Cl)cc(Cl)c(Cl)c2Cl)cc1Cl,"2,2?,3,4,4?,5?,6-PCB",-7.92,log(mol/L),-7.92,log(mol/L),-,395.3270000000001,0,0,7.9274000000000004,0,1.202264434617413e-08
Clc1ccc(-c2c(Cl)c(Cl)c(Cl)c(Cl)c2Cl)c(Cl)c1,"2,2',3,4,4',5',6-PCB",-7.92,log(mol/L),-7.92,log(mol/L),-,395.3270000000001,0,0,7.9274000000000004,0,1.202264434617413e-08
Clc1c(Cl)c(Cl)c(-c2ccccc2)c(Cl)c1Cl,"2,3,4,5,6-pcb",-7.92,log(mol/L),-7.92,log(mol/L),18259-05-7,326.437,0,0,6.620600000000001,0,1.202264434617413e-08
Cc1ccc2c(ccc3c4c5c(cccc5cc32)CC4)c1,3-methylcholanthrene,-7.92,log(mol/L),-7.92,log(mol/L),-,268.359,0,0,5.553220000000004,0,1.202264434617413e-08
Cc1ccc2cc3c(ccc4ccccc43)c3c2c1CC3,3-methylcholanthrene,-7.92,log(mol/L),-7.92,log(mol/L),-,268.359,0,0,5.553220000000004,0,1.202264434617413e-08
Clc1cc(Cl)c(-c2c(Cl)cc(Cl)c(Cl)c2Cl)cc1Cl,"2,2?,3,4,4?,5?,6-pcb",-7.92,log(mol/L),-7.92,log(mol/L),52663-69-1,395.3270000000001,0,0,7.9274000000000004,0,1.202264434617413e-08
CCCCCCCCCCCCCC,Tetradecane,-7.96,log(mol/L),-7.96,log(mol/L),-,198.39399999999995,0,0,5.707400000000006,0,1.0964781961431851e-08
Brc1ccc(Oc2ccc(Br)c(Br)c2Br)c(Br)c1,"2,2',3,4,4'-pentaBDE",-7.97,log(mol/L),-7.97,log(mol/L),-,564.691,1,0,7.291400000000002,0,1.071519305237607e-08
Brc1ccc(Oc2ccc(Br)c(Br)c2Br)c(Br)c1,"2,2',3,4,4'-Pentabromodiphenyl ether; BDE-085",6.0E-6 +- 1.0E-7,g/L,-7.974,log(mol/L),182346-21-0,564.691,1,0,7.291400000000002,0,1.0616955571987241e-08
c1ccc2c3c(ccc2c1)-c1cccc2cccc-3c12,benzo(j)fluoranthene,-8.0,log(mol/L),-8.0,log(mol/L),-,252.31599999999997,0,0,5.640400000000003,0,1e-08
c1ccc2c3c(ccc2c1)-c1cccc2cccc-3c12,benzo(j)fluoranthene,-8.0,log(mol/L),-8.0,log(mol/L),205-82-3,252.31599999999997,0,0,5.640400000000003,0,1e-08
O=C(O)C(F)(F)C(F)(F)C(F)(F)C(F)(F)C(F)(F)C(F)(F)C(F)(F)C(F)(F)C(F)(F)F,-,-2.29,log(mg/L),-8.001,log(mol/L),335-76-2,514.078,1,1,5.715700000000002,0,9.977000638225546e-09
CC(C)C(Nc1ccc(C(F)(F)F)cc1Cl)C(=O)OC(C#N)c1cccc(Oc2ccccc2)c1,Fluvalinate,-8.003,log(mol/L),-8.003,log(mol/L),-,502.9200000000002,5,1,7.395680000000005,0,9.931160484209335e-09
Clc1ccc(-c2ccc(Cl)c(Cl)c2Cl)c(Cl)c1Cl,"2,2?,3,3?,4,4?-pcb",-8.01,log(mol/L),-8.01,log(mol/L),38380-07-3,360.88200000000006,0,0,7.274,0,9.772372209558111e-09
Clc1ccc(-c2ccc(Cl)c(Cl)c2Cl)c(Cl)c1Cl,"2,2',3,3',4,4'-PCB",-8.01,log(mol/L),-8.01,log(mol/L),-,360.88200000000006,0,0,7.274,0,9.772372209558111e-09
Clc1ccc(-c2ccc(Cl)c(Cl)c2Cl)c(Cl)c1Cl,"2,2',3,3',4,4'-PCB",-8.01,log(mol/L),-8.01,log(mol/L),38380-07-3,360.88200000000006,0,0,7.274,0,9.772372209558111e-09
Clc1ccc(-c2ccc(Cl)c(Cl)c2Cl)c(Cl)c1Cl,"2,2?,3,3?,4,4?-PCB",-8.01,log(mol/L),-8.01,log(mol/L),-,360.88200000000006,0,0,7.274,0,9.772372209558111e-09
CC1(C)C(C=C(Cl)Cl)C1C(=O)OC(C#N)c1cccc(Oc2ccccc2)c1,Cypermethrin,-8.017,log(mol/L),-8.017,log(mol/L),-,416.30400000000014,4,0,6.177980000000004,0,9.616122783836659e-09
c1ccc2c(c1)Cc1cc3ccccc3cc1-2,benzo(b)fluorene,-8.04,log(mol/L),-8.04,log(mol/L),-,216.283,0,0,4.411000000000002,1,9.120108393559115e-09
c1ccc2c(c1)Cc1cc3ccccc3cc1-2,benzo(b)fluorene,-8.04,log(mol/L),-8.04,log(mol/L),243-17-4,216.283,0,0,4.411000000000002,1,9.120108393559115e-09
c1ccc2c(c1)ccc1c3ccccc3ccc21,Chrysene,-8.057,log(mol/L),-8.057,log(mol/L),-,228.29399999999998,0,0,5.146200000000003,0,8.770008211436339e-09
c1ccc2c(c1)ccc1c3ccccc3ccc21,Chrysene,-8.06,log(mol/L),-8.06,log(mol/L),218-01-9,228.29399999999998,0,0,5.146200000000003,0,8.709635899560797e-09
c1ccc2c(c1)ccc1c3ccccc3ccc21,Chrysene,-8.06,log(mol/L),-8.06,log(mol/L),-,228.29399999999998,0,0,5.146200000000003,0,8.709635899560797e-09
Clc1ccc(C(c2ccc(Cl)cc2)C(Cl)(Cl)Cl)cc1,"p,p'-DDT",-8.08,log(mol/L),-8.08,log(mol/L),50-29-3,354.491,0,0,6.495500000000002,0,8.317637711026709e-09
Clc1ccc(C(c2ccc(Cl)cc2)C(Cl)(Cl)Cl)cc1,"p,p?-ddt",-8.08,log(mol/L),-8.08,log(mol/L),50-29-3,354.491,0,0,6.495500000000002,0,8.317637711026709e-09
Brc1ccc(Oc2cc(Br)c(Br)cc2Br)c(Br)c1,"2,2',4,4',5-Pentabromodiphenyl ether; BDE-099",7.74E-9,mol/L,-8.111,log(mol/L),60348-60-9,564.691,1,0,7.291400000000002,0,7.744617978025176e-09
CCCCCCCCCCCCCCCCCCCC,Eicosane,-8.17,log(mol/L),-8.17,log(mol/L),-,282.5559999999999,0,0,8.048000000000007,0,6.760829753919819e-09
CCCCCCCCCCCCCCCCCCCC,Eicosane,-8.172,log(mol/L),-8.172,log(mol/L),-,282.5559999999999,0,0,8.048000000000007,0,6.729766562843168e-09
CC(C)C(C(=O)OC(C#N)c1cccc(Oc2ccc(Br)cc2)c1)c1ccc(OC(F)F)cc1,ZXI 8901,0.00356,mg/L,-8.173,log(mol/L),160791-64-0,530.3650000000001,5,0,7.3904800000000055,0,6.714288529259523e-09
CCCCc1oc2ccccc2c1C(=O)c1cc(I)c(OCCN(CC)CC)c(I)c1,Amiodarone,0.0067,?M/L,-8.174,log(mol/L),-,645.3190000000002,4,0,6.936200000000007,0,6.698846094165272e-09
CC1(C)C(C=C(Cl)C(F)(F)F)C1C(=O)OC(C#N)c1cccc(Oc2ccccc2)c1,Cyhalothrin,-8.176,log(mol/L),-8.176,log(mol/L),-,449.8560000000001,4,0,6.543980000000005,0,6.668067692136219e-09
c1ccc2c(c1)cc1ccc3cccc4ccc2c1c34,benzo(a)pyrene,-8.19,log(mol/L),-8.19,log(mol/L),-,252.31599999999997,0,0,5.737200000000003,0,6.456542290346562e-09
c1ccc2c(c1)cc1ccc3cccc4ccc2c1c34,benzo(a)pyrene,-8.19,log(mol/L),-8.19,log(mol/L),50-32-8,252.31599999999997,0,0,5.737200000000003,0,6.456542290346562e-09
Brc1cc(Br)c(Oc2cc(Br)c(Br)c(Br)c2)cc1Br,"Benzene, 1,1'-oxybis-, hexabromo deriv.",0.00408,mg/L,-8.198,log(mol/L),36483-60-0,643.587,1,0,8.053900000000002,0,6.338697112569263e-09
c1ccc2c(c1)-c1cccc3c1c-2cc1ccccc13,benzo(b)fluoranthene,-8.23,log(mol/L),-8.23,log(mol/L),205-99-2,252.31599999999997,0,0,5.640400000000003,0,5.888436553555884e-09
c1ccc2c(c1)-c1cccc3c1c-2cc1ccccc13,benzo(b)fluoranthene,-8.23,log(mol/L),-8.23,log(mol/L),-,252.31599999999997,0,0,5.640400000000003,0,5.888436553555884e-09
Brc1c(Br)c(Br)c(Br)c(Br)c1Br,HBB,-8.26,log(mol/L),-8.26,log(mol/L),-,551.49,0,0,6.261600000000001,0,5.495408738576248e-09
Brc1c(Br)c(Br)c(Br)c(Br)c1Br,HBB; hexabromobenzene,3.0E-6 +- 5.0E-7,g/L,-8.264,log(mol/L),87-82-1,551.49,0,0,6.261600000000001,0,5.44502652842422e-09
Clc1ccc(-c2c(Cl)cc(Cl)c(Cl)c2Cl)c(Cl)c1Cl,"2,2?,3,3?,4,4?,6-pcb",-8.3,log(mol/L),-8.3,log(mol/L),52663-71-5,395.3270000000001,0,0,7.9274000000000004,0,5.011872336272715e-09
Clc1ccc(-c2c(Cl)cc(Cl)c(Cl)c2Cl)c(Cl)c1Cl,"2,2?,3,3?,4,4?,6-PCB",-8.3,log(mol/L),-8.3,log(mol/L),-,395.3270000000001,0,0,7.9274000000000004,0,5.011872336272715e-09
Clc1ccc(-c2c(Cl)cc(Cl)c(Cl)c2Cl)c(Cl)c1Cl,"2,2',3,3',4,4',6-pcb",-8.3,log(mol/L),-8.3,log(mol/L),52663-71-5,395.3270000000001,0,0,7.9274000000000004,0,5.011872336272715e-09
Clc1cc(Cl)c(-c2ccc(Cl)c(Cl)c2Cl)cc1Cl,"2,2?,3,4,4?,5?-PCB",-8.32,log(mol/L),-8.32,log(mol/L),-,360.88200000000006,0,0,7.274000000000001,0,4.78630092322638e-09
Clc1cc(Cl)c(-c2ccc(Cl)c(Cl)c2Cl)cc1Cl,"2,2?,3,4,4?,5?-pcb",-8.32,log(mol/L),-8.32,log(mol/L),35065-28-2,360.88200000000006,0,0,7.274000000000001,0,4.78630092322638e-09
Clc1cc(Cl)c(-c2ccc(Cl)c(Cl)c2Cl)cc1Cl,"2,2',3,4,4',5'-pcb",-8.32,log(mol/L),-8.32,log(mol/L),35065-28-2,360.88200000000006,0,0,7.274000000000001,0,4.78630092322638e-09
CCCCCCCCCCCCCCCCCCCCCCCCCC,hexacosane,-8.33,log(mol/L),-8.33,log(mol/L),-,366.7180000000002,0,0,10.388599999999993,0,4.6773514128719815e-09
CCCCCCCCCCCCCCCCCCCCCCCCCC,hexacosane,-8.334,log(mol/L),-8.334,log(mol/L),-,366.7180000000002,0,0,10.388599999999993,0,4.634469197362884e-09
Brc1ccc(Oc2cc(Br)c(Br)cc2Br)c(Br)c1,"2,2',4,4',5-Pentabromodiphenyl ether; BDE-099",0.0024,mg/L,-8.372,log(mol/L),60348-60-9,564.691,1,0,7.291400000000002,0,4.24619563946313e-09
CCCCCCCCCCCCCCCC,Hexadecane,-8.4,log(mol/L),-8.4,log(mol/L),-,226.44799999999992,0,0,6.487600000000007,0,3.981071705534969e-09
FC(F)(F)c1cccc(C(c2ccccc2)(c2ccccc2)n2cncn2)c1,fluotrimazole,-8.4,log(mol/L),-8.4,log(mol/L),31251-03-3,379.38500000000005,3,0,5.137100000000005,0,3.981071705534969e-09
CCCCCCCCCCCCCCCCCCO,1-Octadecanol,-8.4,log(mol/L),-8.4,log(mol/L),-,270.50099999999986,1,1,6.240200000000008,0,3.981071705534969e-09
CC1(C)C(C=C(Br)Br)C1C(=O)OC(C#N)c1cccc(Oc2ccccc2)c1,Deltamethrin,-8.4,log(mol/L),-8.4,log(mol/L),-,505.20600000000024,4,0,6.490180000000005,0,3.981071705534969e-09
CC1(C)C(C=C(Br)Br)C1C(=O)OC(C#N)c1cccc(Oc2ccccc2)c1,Deltamethrin,-8.402,log(mol/L),-8.402,log(mol/L),-,505.20600000000024,4,0,6.490180000000005,0,3.962780342554402e-09
Clc1cccc(-c2cc(Cl)c(Cl)c(Cl)c2Cl)c1Cl,"2,2?,3,3?,4,5-PCB",-8.42,log(mol/L),-8.42,log(mol/L),-,360.88200000000006,0,0,7.274000000000001,0,3.8018939632056126e-09
Clc1cccc(-c2cc(Cl)c(Cl)c(Cl)c2Cl)c1Cl,"2,2?,3,3?,4,5-pcb",-8.42,log(mol/L),-8.42,log(mol/L),55215-18-4,360.88200000000006,0,0,7.274000000000001,0,3.8018939632056126e-09
Clc1cccc(-c2cc(Cl)c(Cl)c(Cl)c2Cl)c1Cl,"2,2',3,3',4,5-pcb",-8.42,log(mol/L),-8.42,log(mol/L),55215-18-4,360.88200000000006,0,0,7.274000000000001,0,3.8018939632056126e-09
c1ccc2cc3c(cc2c1)-c1cccc2cccc-3c12,benzo(k)fluoranthene,-8.49,log(mol/L),-8.49,log(mol/L),207-08-9,252.31599999999997,0,0,5.640400000000003,0,3.235936569296281e-09
c1ccc2cc3c(cc2c1)-c1cccc2cccc-3c12,benzo(k)fluoranthene,-8.49,log(mol/L),-8.49,log(mol/L),-,252.31599999999997,0,0,5.640400000000003,0,3.235936569296281e-09
Clc1cc(Cl)c(-c2cc(Cl)c(Cl)cc2Cl)cc1Cl,"2,2?,4,4?5,5?-PCB",-8.56,log(mol/L),-8.56,log(mol/L),-,360.88200000000006,0,0,7.274000000000001,0,2.7542287033381634e-09
Clc1cc(Cl)c(-c2cc(Cl)c(Cl)cc2Cl)cc1Cl,"2,2',4,4',5,5'-PCB",-8.56,log(mol/L),-8.56,log(mol/L),-,360.88200000000006,0,0,7.274000000000001,0,2.7542287033381634e-09
Clc1cc(Cl)c(-c2cc(Cl)c(Cl)cc2Cl)cc1Cl,"2,2?,4,4?5,5?-pcb",-8.56,log(mol/L),-8.56,log(mol/L),35065-27-1,360.88200000000006,0,0,7.274000000000001,0,2.7542287033381634e-09
Clc1cc(Cl)c(-c2cc(Cl)c(Cl)cc2Cl)cc1Cl,"2,2',4,4'5,5'-pcb",-8.56,log(mol/L),-8.56,log(mol/L),35065-27-1,360.88200000000006,0,0,7.274000000000001,0,2.7542287033381634e-09
Clc1cc(Cl)c(Cl)c(-c2cc(Cl)c(Cl)cc2Cl)c1,"2,2?,3,3?,5?,6-PCB",-8.6,log(mol/L),-8.6,log(mol/L),-,360.88200000000006,0,0,7.274000000000001,0,2.511886431509582e-09
c1ccc2cc3cc4ccccc4cc3cc2c1,naphthacene,-8.6,log(mol/L),-8.6,log(mol/L),92-24-0,228.29399999999998,0,0,5.146200000000003,0,2.511886431509582e-09
Clc1cccc(-c2c(Cl)c(Cl)cc(Cl)c2Cl)c1Cl,"2,2',3,3',5,6-PCB",-8.6,log(mol/L),-8.6,log(mol/L),-,360.88200000000006,0,0,7.274000000000001,0,2.511886431509582e-09
CCOc1ccc(C(C)(C)COCc2cccc(Oc3ccccc3)c2)cc1,Etofenprox,-8.6,log(mol/L),-8.6,log(mol/L),-,376.49600000000004,3,0,6.372000000000006,0,2.511886431509582e-09
Clc1cccc(-c2c(Cl)c(Cl)cc(Cl)c2Cl)c1Cl,"2,2?,3,3?,5,6-pcb",-8.6,log(mol/L),-8.6,log(mol/L),52704-70-8,360.88200000000006,0,0,7.274000000000001,0,2.511886431509582e-09
Clc1cccc(-c2c(Cl)c(Cl)cc(Cl)c2Cl)c1Cl,"2,2',3,3',5,6-PCB",-8.6,log(mol/L),-8.6,log(mol/L),52704-70-8,360.88200000000006,0,0,7.274000000000001,0,2.511886431509582e-09
c1ccc2cc3cc4ccccc4cc3cc2c1,naphthacene,-8.6,log(mol/L),-8.6,log(mol/L),-,228.29399999999998,0,0,5.146200000000003,0,2.511886431509582e-09
c1ccc2cc3cc4ccccc4cc3cc2c1,Napthacene,-8.6,log(mol/L),-8.6,log(mol/L),-,228.29399999999998,0,0,5.146200000000003,0,2.511886431509582e-09
Clc1ccc(Cl)c(-c2c(Cl)ccc(Cl)c2Cl)c1Cl,"2,2?,3,3?,6,6?-pcb",-8.65,log(mol/L),-8.65,log(mol/L),38411-22-2,360.88200000000006,0,0,7.274000000000001,0,2.2387211385683377e-09
Clc1cc(Cl)c(-c2c(Cl)ccc(Cl)c2Cl)cc1Cl,"2,2?,3,3?,6,6?-PCB",-8.65,log(mol/L),-8.65,log(mol/L),-,360.88200000000006,0,0,7.274000000000001,0,2.2387211385683377e-09
Clc1ccc(Cl)c(-c2c(Cl)ccc(Cl)c2Cl)c1Cl,"2,2',3,3',6,6'-pcb",-8.65,log(mol/L),-8.65,log(mol/L),38411-22-2,360.88200000000006,0,0,7.274000000000001,0,2.2387211385683377e-09
Clc1ccc(Cl)c(-c2c(Cl)ccc(Cl)c2Cl)c1Cl,"1,2,4-trichloro-3-(2,3,6-trichlorophenyl)benzene",-8.65,log(mol/L),-8.65,log(mol/L),-,360.88200000000006,0,0,7.274000000000001,0,2.2387211385683377e-09
c1ccc2c(c1)ccc1cc3c(ccc4ccccc43)cc12,"dibenz(a,h)anthracene",-8.66,log(mol/L),-8.66,log(mol/L),-,278.354,0,0,6.299400000000003,0,2.1877616239495518e-09
c1ccc2c(c1)ccc1cc3c(ccc4ccccc43)cc12,"dibenz(a,h)anthracene",-8.66,log(mol/L),-8.66,log(mol/L),53-70-3,278.354,0,0,6.299400000000003,0,2.1877616239495518e-09
Brc1cc(Br)c(Oc2c(Br)cc(Br)c(Br)c2Br)cc1Br,"2,2',3,4,4',5',6-heptaBDE",-8.68,log(mol/L),-8.68,log(mol/L),-,722.483,1,0,8.8164,0,2.089296130854041e-09
Brc1cc(Br)c(Oc2c(Br)cc(Br)c(Br)c2Br)cc1Br,"BDE-183; 2,2',3,4,4',5',6-heptabromodiphenyl ether",1.5E-6 +- 3.0E-7,g/L,-8.683,log(mol/L),207122-16-5,722.483,1,0,8.8164,0,2.0749135174549106e-09
c1ccc2c(c1)cc1ccc3cccc4ccc2c1c34,benzo(a)pyrene,-8.699,log(mol/L),-8.699,log(mol/L),-,252.31599999999997,0,0,5.737200000000003,0,1.9998618696327446e-09
Clc1cc(Cl)c(-c2cc(Cl)cc(Cl)c2Cl)c(Cl)c1,"2,2?,4,4?,6,6?-PCB",-8.71,log(mol/L),-8.71,log(mol/L),-,360.88200000000006,0,0,7.274000000000001,0,1.9498445997580416e-09
Clc1cc(Cl)c(-c2c(Cl)cc(Cl)cc2Cl)c(Cl)c1,"2,2',4,4',6,6'-PCB",-8.71,log(mol/L),-8.71,log(mol/L),-,360.88200000000006,0,0,7.274000000000001,0,1.9498445997580416e-09
Clc1cc(Cl)c(-c2c(Cl)cc(Cl)cc2Cl)c(Cl)c1,"2,2?,4,4?,6,6?-pcb",-8.71,log(mol/L),-8.71,log(mol/L),33979-03-2,360.88200000000006,0,0,7.274000000000001,0,1.9498445997580416e-09
Clc1cc(Cl)c(-c2c(Cl)cc(Cl)cc2Cl)c(Cl)c1,"2,2',4,4',6,6'-PCB",-8.71,log(mol/L),-8.71,log(mol/L),33979-03-2,360.88200000000006,0,0,7.274000000000001,0,1.9498445997580416e-09
c1cc2cccc3c4cccc5cccc(c(c1)c23)c54,perylene,-8.8,log(mol/L),-8.8,log(mol/L),198-55-0,252.31599999999997,0,0,5.737200000000003,0,1.584893192461111e-09
c1cc2cccc3c4cccc5cccc(c(c1)c23)c54,perylene,-8.8,log(mol/L),-8.8,log(mol/L),-,252.31599999999997,0,0,5.737200000000003,0,1.584893192461111e-09
c1cc2cccc3c4cccc5cccc(c(c1)c23)c54,perylene,-8.804,log(mol/L),-8.804,log(mol/L),-,252.31599999999997,0,0,5.737200000000003,0,1.5703628043335515e-09
Brc1cc(Br)c(Oc2cc(Br)c(Br)cc2Br)c(Br)c1,"BDE-154; 2,2',4,4',5,6'-hexabromodiphenyl ether",8.7E-7 +- 9.0E-8,g/L,-8.869,log(mol/L),207122-15-4,643.587,1,0,8.053900000000002,0,1.352072563194278e-09
Brc1cc(Br)c(Oc2cc(Br)c(Br)cc2Br)cc1Br,"BDE-153; 2,2',4,4',5,5'-Hexabromodiphenyl ether",8.7E-7 +- 6.0E-8,g/L,-8.869,log(mol/L),68631-49-2,643.587,1,0,8.053900000000002,0,1.352072563194278e-09
Brc1cc(Br)c(Oc2cc(Br)c(Br)cc2Br)c(Br)c1,"2,2',4,4',5,6'-hexaBDE",-8.87,log(mol/L),-8.87,log(mol/L),-,643.587,1,0,8.053900000000002,0,1.348962882591656e-09
Brc1cc(Br)c(Oc2cc(Br)c(Br)cc2Br)cc1Br,"2,2',4,4',5,5'-hexaBDE",-8.87,log(mol/L),-8.87,log(mol/L),-,643.587,1,0,8.053900000000002,0,1.348962882591656e-09
Clc1ccc(Cl)c(-c2c(Cl)c(Cl)c(Cl)c(Cl)c2Cl)c1,"2,2',3,4,5,5',6-PCB",-8.94,log(mol/L),-8.94,log(mol/L),52712-05-7,395.3270000000001,0,0,7.9274000000000004,0,1.148153621496884e-09
Clc1ccc(Cl)c(-c2c(Cl)c(Cl)c(Cl)c(Cl)c2Cl)c1,"2,2?,3,4,5,5?,6-pcb",-8.94,log(mol/L),-8.94,log(mol/L),52712-05-7,395.3270000000001,0,0,7.9274000000000004,0,1.148153621496884e-09
Clc1ccc(Cl)c(-c2c(Cl)c(Cl)c(Cl)c(Cl)c2Cl)c1,"2,2',3,4,5,5',6-PCB",-8.94,log(mol/L),-8.94,log(mol/L),-,395.3270000000001,0,0,7.9274000000000004,0,1.148153621496884e-09
Clc1ccc(Cl)c(-c2c(Cl)c(Cl)c(Cl)c(Cl)c2Cl)c1,"2,2?,3,4,5,5?,6-PCB",-8.94,log(mol/L),-8.94,log(mol/L),-,395.3270000000001,0,0,7.9274000000000004,0,1.148153621496884e-09
c1cc2ccc3ccc4ccc5cccc6c(c1)c2c3c4c56,Benzo[ghi]perylene,-9.018,log(mol/L),-9.018,log(mol/L),-,276.338,0,0,6.3282000000000025,0,9.594006315159317e-10
c1cc2ccc3ccc4ccc5cccc6c(c1)c2c3c4c56,benzo(ghi)perylene,-9.03,log(mol/L),-9.03,log(mol/L),-,276.338,0,0,6.3282000000000025,0,9.332543007969924e-10
c1cc2ccc3ccc4ccc5cccc6c(c1)c2c3c4c56,benzo(ghi)perylene,-9.03,log(mol/L),-9.03,log(mol/L),191-24-2,276.338,0,0,6.3282000000000025,0,9.332543007969924e-10
Clc1cc(Cl)c(Cl)c(-c2c(Cl)c(Cl)cc(Cl)c2Cl)c1Cl,"2,2?,3,3?,5,5?,6,6?-PCB",-9.15,log(mol/L),-9.15,log(mol/L),-,429.77200000000016,0,0,8.580799999999998,0,7.079457843841373e-10
Clc1cc(Cl)c(Cl)c(-c2c(Cl)c(Cl)cc(Cl)c2Cl)c1Cl,"2,2',3,3',5,5',6,6'-PCB",-9.15,log(mol/L),-9.15,log(mol/L),2136-99-4,429.77200000000016,0,0,8.580799999999998,0,7.079457843841373e-10
Clc1cc(Cl)c(Cl)c(-c2c(Cl)c(Cl)cc(Cl)c2Cl)c1Cl,"2,2?,3,3?,5,5?,6,6?-pcb",-9.15,log(mol/L),-9.15,log(mol/L),2136-99-4,429.77200000000016,0,0,8.580799999999998,0,7.079457843841373e-10
Clc1cc(Cl)c(Cl)c(-c2c(Cl)c(Cl)cc(Cl)c2Cl)c1Cl,"2,2',3,3',5,5',6,6'-PCB",-9.15,log(mol/L),-9.15,log(mol/L),-,429.77200000000016,0,0,8.580799999999998,0,7.079457843841373e-10
Clc1cc(-c2cc(Cl)c(Cl)c(Cl)c2Cl)c(Cl)c(Cl)c1Cl,"2,2',3,3',4,4',5,5'-PCB",-9.16,log(mol/L),-9.16,log(mol/L),35694-08-7,429.77200000000016,0,0,8.580799999999998,0,6.918309709189363e-10
Clc1cc(-c2cc(Cl)c(Cl)c(Cl)c2Cl)c(Cl)c(Cl)c1Cl,"2,2?,3,3?,4,4?,5,5?-PCB",-9.16,log(mol/L),-9.16,log(mol/L),-,429.77200000000016,0,0,8.580799999999998,0,6.918309709189363e-10
Clc1cc(-c2cc(Cl)c(Cl)c(Cl)c2Cl)c(Cl)c(Cl)c1Cl,"2,2?,3,3?,4,4?,5,5?-pcb",-9.16,log(mol/L),-9.16,log(mol/L),35694-08-7,429.77200000000016,0,0,8.580799999999998,0,6.918309709189363e-10
Clc1cc(-c2cc(Cl)c(Cl)c(Cl)c2Cl)c(Cl)c(Cl)c1Cl,"2,2',3,3',4,4',5,5'-PCB",-9.16,log(mol/L),-9.16,log(mol/L),-,429.77200000000016,0,0,8.580799999999998,0,6.918309709189363e-10
c1cc2ccc3ccc4ccc5ccc6ccc1c1c2c3c4c5c61,Coronene,-9.33,log(mol/L),-9.33,log(mol/L),-,300.36000000000007,0,0,6.919200000000002,0,4.677351412871981e-10
c1cc2ccc3ccc4ccc5ccc6ccc1c1c2c3c4c5c61,Coronene,-9.332,log(mol/L),-9.332,log(mol/L),-,300.36000000000007,0,0,6.919200000000002,0,4.6558609352295814e-10
Brc1cc(Br)c(Br)c(-c2c(Br)c(Br)cc(Br)c2Br)c1Br,"1,1'-Biphenyl, ar,ar,ar,ar,ar',ar',ar',ar'-octab",3.5E-4,mg/L,-9.351,log(mol/L),27858-07-7,785.38,0,0,9.4536,0,4.456562483975024e-10
Brc1c(Br)c(Br)c(Br)c(Br)c1Br,hexabromobenzene,1.6E-4,mg/L,-9.537,log(mol/L),87-82-1,551.49,0,0,6.261600000000001,0,2.9040226544644453e-10
Brc1ccc(Br)c(-c2cc(Br)c(Br)cc2Br)c1,"2,2',4,5,5'-PENTABROMOBIPHENYL",1.03E-4,mg/L,-9.726,log(mol/L),67888-96-4,548.692,0,0,7.166100000000003,0,1.8793168168032648e-10
Brc1c(Br)c(Br)c(Oc2c(Br)c(Br)c(Br)c(Br)c2Br)c(Br)c1Br,Decabromodiphenyl ether,1.0E-4,mg/L,-9.982,log(mol/L),1163-19-5,959.171,1,0,11.1039,0,1.0423174293933057e-10
Brc1cc(Br)c(Oc2cc(Br)c(Br)cc2Br)cc1Br,"BDE-153; 2,2',4,4',5,5'-Hexabromodiphenyl ether",5.04E-5 +- 2.7E-6,mg/L,-10.11,log(mol/L),68631-49-2,643.587,1,0,8.053900000000002,0,7.762471166286927e-11
Clc1cc(-c2c(Cl)c(Cl)c(Cl)c(Cl)c2Cl)c(Cl)c(Cl)c1Cl,"2,2?,3,3?,4,4?,5,5?,6-PCB",-10.26,log(mol/L),-10.26,log(mol/L),-,464.2170000000002,0,0,9.2342,0,5.495408738576248e-11
Clc1cc(-c2c(Cl)c(Cl)c(Cl)c(Cl)c2Cl)c(Cl)c(Cl)c1Cl,"2,2?,3,3?,4,4?,5,5?,6-pcb",-10.26,log(mol/L),-10.26,log(mol/L),40186-72-9,464.2170000000002,0,0,9.2342,0,5.495408738576248e-11
Clc1cc(-c2c(Cl)c(Cl)c(Cl)c(Cl)c2Cl)c(Cl)c(Cl)c1Cl,"2,2',3,3',4,4',5,5',6-pcb",-10.26,log(mol/L),-10.26,log(mol/L),40186-72-9,464.2170000000002,0,0,9.2342,0,5.495408738576248e-11
Clc1cc(Cl)c(Cl)c(-c2c(Cl)c(Cl)c(Cl)c(Cl)c2Cl)c1Cl,"2,2',3,3',4,5,5',6,6'-pcb",-10.41,log(mol/L),-10.41,log(mol/L),52663-77-1,464.2170000000002,0,0,9.2342,0,3.8904514499428045e-11
Clc1cc(Cl)c(Cl)c(-c2c(Cl)c(Cl)c(Cl)c(Cl)c2Cl)c1Cl,"2,2?,3,3?,4,5,5?,6,6?-PCB",-10.41,log(mol/L),-10.41,log(mol/L),-,464.2170000000002,0,0,9.2342,0,3.8904514499428045e-11
Clc1cc(Cl)c(Cl)c(-c2c(Cl)c(Cl)c(Cl)c(Cl)c2Cl)c1Cl,"2,2?,3,3?,4,5,5?,6,6?-pcb",-10.41,log(mol/L),-10.41,log(mol/L),52663-77-1,464.2170000000002,0,0,9.2342,0,3.8904514499428045e-11
Clc1c(Cl)c(Cl)c(-c2c(Cl)c(Cl)c(Cl)c(Cl)c2Cl)c(Cl)c1Cl,"2,2',3,3',4,4',5,5',6,6'-PCB",-11.6,log(mol/L),-11.6,log(mol/L),-,498.66200000000026,0,0,9.887599999999999,0,2.5118864315095823e-12