SMILES,NAME,Water solubility,UNIT {Water solubility},Solubility_log(mol/L),UNIT {Water solubility}.1,CASRN
FC(F)(F)CCl,"1,1,1-TRIFLUORO-2-CHLOROETHANE",9200.0,mg/L,-1.11,log(mol/L),75-88-7
COC1=NC=C2N=CC=NC2=N1,2-methoxypteridine,-1.11,log(mol/L),-1.11,log(mol/L),102170-44-5
O(C1=NC=NC2=NC=CN=C21)C,4-methoxypteridine,-1.11,log(mol/L),-1.11,log(mol/L),-
NCCC1=CC=C(O)C=C1,tyramine,-1.12,log(mol/L),-1.12,log(mol/L),51-67-2
ClCCOCCCl,bis-(2-chloroethyl) ether,-1.12,log(mol/L),-1.12,log(mol/L),111-44-4
NCCC1=CC=C(O)C=C1,tyramine,-1.12,log(mol/L),-1.12,log(mol/L),-
OC(C1CC(C)CC(C)C1=O)CC2CC(=O)NC(C2)=O,cycloheximide,-1.13,log(mol/L),-1.13,log(mol/L),66-81-9
CC1CC(C)C(=O)C(C1)C(O)CC2CC(=O)NC(=O)C2,cycloheximide,-1.13,log(mol/L),-1.13,log(mol/L),-
O(C1=NC=2C(N=C1)=NC=NC2)C,6-methoxypteridine,-1.139,log(mol/L),-1.139,log(mol/L),-
CC(C)CCCO,4-Methylpentanol,-1.14,log(mol/L),-1.14,log(mol/L),-
NC1=NC(NC=C1)=O,cytosine,-1.14,log(mol/L),-1.14,log(mol/L),71-30-7
CC(C)CCCO,4-methyl-1-pentanol,-1.14,log(mol/L),-1.14,log(mol/L),626-89-1
OC(CC)C(C)(C)C,"2,2-dimethyl-3-pentanol",-1.15,log(mol/L),-1.15,log(mol/L),3970-62-5
NC=1C=CNC(=O)N1,cytosine,-1.155,log(mol/L),-1.155,log(mol/L),-
C1=CC=C2OC=NC2=C1,benzoxazole,-1.16,log(mol/L),-1.16,log(mol/L),-
ClCCS(=O)CCCl,bis-(2-chloroethyl)-sulfoxide,-1.16,log(mol/L),-1.16,log(mol/L),-
C12=C(C=CC=C1)N=CO2,benzoxazole,-1.16,log(mol/L),-1.16,log(mol/L),273-53-0
O=C1NC(=O)NC(=O)C1(C)CC=C,5-Allyl-5-methylbarbital,-1.16,log(mol/L),-1.16,log(mol/L),-
S(=O)(CCCl)CCCl,bis-(2-chloroethyl)-sulfoxide,-1.16,log(mol/L),-1.16,log(mol/L),-
O=C(C1=CC(O)=C(O)C(O)=C1)O,gallic acid,-1.16,log(mol/L),-1.16,log(mol/L),149-91-7
S(=O)(CCCN(CC(O)COC1=CC=C(C=C1)C#N)CC)CCC,Almokalant,-1.17,log(mol/L),-1.17,log(mol/L),-
BrCBr,dibromomethane,-1.17,log(mol/L),-1.17,log(mol/L),-
CCC(CC)CO,2-ethyl-1-butanol,-1.17,log(mol/L),-1.17,log(mol/L),-
ClC(Cl)Cl,Trichloromethane,-1.17,log(mol/L),-1.17,log(mol/L),-
ClC(Cl)Cl,Chloroform,-1.17,log(mol/L),-1.17,log(mol/L),67-66-3
CCC(CO)CC,2-ethyl-1-butanol,-1.17,log(mol/L),-1.17,log(mol/L),97-95-0
C(Br)Br,dibromomethane,-1.17,log(mol/L),-1.17,log(mol/L),74-95-3
OC1=CC=C(C)C=C1C,"2,4-xylenol",-1.19,log(mol/L),-1.19,log(mol/L),105-67-9
CC1=CC=C(O)C(C)=C1,"2,4-Dimethylphenol",-1.19,log(mol/L),-1.19,log(mol/L),-
CC1=NC=C(N(=O)=O)N1CCO,Metronidazole,-1.19,log(mol/L),-1.19,log(mol/L),-
O=CC1=CC=CC=C1,benzaldehyde,-1.19,log(mol/L),-1.19,log(mol/L),-
O=CC1=CC=CC=C1,benzaldehyde,-1.19,log(mol/L),-1.19,log(mol/L),100-52-7
OCC1=CC=C(C)C=C1,p-methylbenzyl alcohol,-1.2,log(mol/L),-1.2,log(mol/L),589-18-4
O=C(OC)C1C(C(OC)=O)C2CC1C=C2,dimethyl carbate,-1.2,log(mol/L),-1.2,log(mol/L),5826-73-3
COCCC1=CC=C(OCC(O)CNC(C)C)C=C1,metoprolol,-1.2,log(mol/L),-1.2,log(mol/L),-
CC1=CC(O)=C2C=CC=CC2=N1,4-hydroxy-2-methylquinoline,-1.2,log(mol/L),-1.2,log(mol/L),607-67-0
NC1=CC=C(C)C=C1,4-methylaniline,-1.21,log(mol/L),-1.21,log(mol/L),106-49-0
CC1=C(N2C(SC1)C(NC(=O)C(N)C3=CCC=CC3)C2=O)C(O)=O,Cephradine,-1.21,log(mol/L),-1.21,log(mol/L),-
CC1=CC=C(C=C1)N,p-Methylaniline,-1.21,log(mol/L),-1.21,log(mol/L),-
O=C(C=C)OCC(C)C,isobutyl acrylate,-1.21,log(mol/L),-1.21,log(mol/L),106-63-8
CC(C)COC(=O)C,Isobutyl acetate,-1.21,log(mol/L),-1.21,log(mol/L),-
CC1=NC=C(N(=O)=O)N1CCO,Metronidazole,-1.22,log(mol/L),-1.22,log(mol/L),-
CC(C)C(O)C(C)C,"2,4-dimethyl-3-pentanol",-1.22,log(mol/L),-1.22,log(mol/L),600-36-2
C1=C(CO)C(O)=CC=C1C(O)CNC(C)(C)C,salbutamol,-1.22,log(mol/L),-1.22,log(mol/L),-
CC(C)C(O)C(C)C,"2,4-dimethyl-3-pentanol",-1.22,log(mol/L),-1.22,log(mol/L),-
CC(C)(NCC(C1=CC(CO)=C(O)C=C1)O)C,salbutamol,-1.22,log(mol/L),-1.22,log(mol/L),18559-94-9
OCCN1C(=NC=C1N(=O)=O)C,Metronidazole,60058.7,?M/L,-1.221,log(mol/L),-
O=C1NC(=O)NC(=O)C1(C)CC,5-Methyl-5-ethylbarbituric acid,-1.228,log(mol/L),-1.228,log(mol/L),-
O=C(NS(=O)(=O)C1=CC=C(N)C=C1)C,Sulfacetamide,-1.23,log(mol/L),-1.23,log(mol/L),-
O=S(NC(C)=O)(C1=CC=C(N)C=C1)=O,sulfanilacetamide,-1.23,log(mol/L),-1.23,log(mol/L),144-80-9
OCC1OC(C(O)C1O)N2C=NC=3C(O)=NC=NC23,inosine,-1.23,log(mol/L),-1.23,log(mol/L),-
OC1=NC=NC2=C1N=CN2C3C(O)C(O)C(CO)O3,inosine,-1.23,log(mol/L),-1.23,log(mol/L),58-63-9
O=C(O)C(N)CC1=CNC2=C1C=CC=C2,l-tryptophan,-1.23,log(mol/L),-1.23,log(mol/L),73-22-3
OCC1OC(C(O)C1O)N2C=NC=3C(=O)NC=NC23,inosine,-1.23,log(mol/L),-1.23,log(mol/L),-
CCCCCCO,1-hexanol,-1.24,log(mol/L),-1.24,log(mol/L),111-27-3
O=C(C1=CC(O)=C(C(=C1)O)O)OC,methyl gallate,-1.24,log(mol/L),-1.24,log(mol/L),99-24-1
COC(=O)C1=CC(O)=C(O)C(O)=C1,methyl gallate,-1.24,log(mol/L),-1.24,log(mol/L),-
C(CC)#C,1-Butyne,-1.24,log(mol/L),-1.24,log(mol/L),-
CCC#C,1-Butyne,-1.24,log(mol/L),-1.24,log(mol/L),-
C(C)(=O)OCCCC,Butyl acetate,-1.24,log(mol/L),-1.24,log(mol/L),123-86-4
CCCCCCO,1-hexanol,-1.24,log(mol/L),-1.24,log(mol/L),-
OC1=CC=C(Cl)C(Cl)=C1,"3,4-Dichlorophenol",-1.25,log(mol/L),-1.25,log(mol/L),-
O=C1C(NC(NC1=O)=O)=O,alloxan,-1.25,log(mol/L),-1.25,log(mol/L),50-71-5
O=C1NC(=O)C(=O)C(=O)N1,alloxan,-1.25,log(mol/L),-1.25,log(mol/L),-
OCCN1C(N(=O)=O)=CN=C1C,Metronidazole,-1.26,log(mol/L),-1.26,log(mol/L),443-48-1
O=C1NC(C)=CC(N1)=O,6-methyluracil,-1.26,log(mol/L),-1.26,log(mol/L),626-48-2
CC1=NC=C(N(=O)=O)N1CCO,Metranidazole,-1.26,log(mol/L),-1.26,log(mol/L),-
CC1COC2=C(N3CCN(C)CC3)C(F)=CC4=C2N1C=C(C(O)=O)C4=O,Ofloxacin,54262.5,?M/L,-1.266,log(mol/L),-
CC(C)(C)C(C)(O)CC,"2,2,3-trimethyl-3-pentanol",-1.27,log(mol/L),-1.27,log(mol/L),-
C(CCC)(=O)OCC,ethyl butyrate,-1.28,log(mol/L),-1.28,log(mol/L),105-54-4
CC(C1=CC(N)=CC=C1)=O,m-aminoacetophenone,-1.28,log(mol/L),-1.28,log(mol/L),99-03-6
CC(=O)C1=CC=CC=C1,Acetophenone,-1.28,log(mol/L),-1.28,log(mol/L),-
CC1=CC(N)=NC(C)=N1,"2,6-dimethyl-4-pyrimidinamine",-1.28,log(mol/L),-1.28,log(mol/L),461-98-3
CCCCCOC(=O)CC,ethyl butyrate,-1.28,log(mol/L),-1.28,log(mol/L),-
CC(=O)C1=CC=CC=C1,Acetophenone,-1.28,log(mol/L),-1.28,log(mol/L),98-86-2
CNC1=CC=CC=C1,N-Methylaniline,-1.28,log(mol/L),-1.28,log(mol/L),100-61-8
CNC1=CC=CC=C1,N-Methylaniline,-1.28,log(mol/L),-1.28,log(mol/L),-
CC1=CC=CC(C)=C1O,"2,6-Dimethylphenol",-1.29,log(mol/L),-1.29,log(mol/L),-
CC(Cl)Cl,"1,1-dichloroethane",-1.29,log(mol/L),-1.29,log(mol/L),75-34-3
OC1CCCCCCC1,Cyclooctanol,-1.29,log(mol/L),-1.29,log(mol/L),-
CC(Cl)Cl,"1,1-dichloroethane",-1.29,log(mol/L),-1.29,log(mol/L),-
CC(C)NCC(O)COC1=CC=C(CC(N)=O)C=C1,atenolol,-1.3,log(mol/L),-1.3,log(mol/L),-
CC(NC1=CC=C(OC)C=C1)=O,4-methoxyacetanilide,-1.3,log(mol/L),-1.3,log(mol/L),51-66-1
CC(C)C(=O)C(C)C,"2,4-Dimethyl-3-pentanone",-1.3,log(mol/L),-1.3,log(mol/L),-
CCCC(CCC)=O,4-heptanone,-1.3,log(mol/L),-1.3,log(mol/L),-
ClC=CCl,"1,2-dichloroethylene",-1.3,log(mol/L),-1.3,log(mol/L),156-59-2
CCCC(CCC)=O,4-heptanone,-1.3,log(mol/L),-1.3,log(mol/L),123-19-3
C1=CC=C2N=CC=CC2=C1,Quinoline,-1.3,log(mol/L),-1.3,log(mol/L),-
C=12C=CC=NC1C=CC=C2,Quinoline,-1.3,log(mol/L),-1.3,log(mol/L),91-22-5
CCCCCC=O,Caproaldehyde,-1.3,log(mol/L),-1.3,log(mol/L),-
ClC=CCl,"cis 1,2-Dichloroethylene",-1.3,log(mol/L),-1.3,log(mol/L),-
CCCCCC=O,hexanal,-1.3,log(mol/L),-1.3,log(mol/L),66-25-1
OC1=CC=CC(Cl)=C1Cl,"2,3-Dichlorophenol",-1.3,log(mol/L),-1.3,log(mol/L),-
O=N(=O)C1=CC=CC(Br)=C1,3-Bromo-1-nitrobenzene,10000.0,mg/L,-1.305,log(mol/L),585-79-5
CC1=C(O)C(C)=CC=C1,"2,6-xylenol",-1.31,log(mol/L),-1.31,log(mol/L),576-26-1
FC(F)C,"1,1-Difluoroethane",3200.0,mg/L,-1.315,log(mol/L),75-37-6
BrCCCl,1-chloro-2-bromoethane,-1.32,log(mol/L),-1.32,log(mol/L),-
BrCCCl,1-chloro-2-bromoethane,-1.32,log(mol/L),-1.32,log(mol/L),107-04-0
BrC=CBr,"1,2-dibromoethylene",-1.32,log(mol/L),-1.32,log(mol/L),-
BrC=CBr,"1,2-dibromoethylene",-1.32,log(mol/L),-1.32,log(mol/L),590-12-5
ClCCBr,1-chloro-2-bromoethane,-1.32,log(mol/L),-1.32,log(mol/L),-
CC(NC1=CC=CC=C1)=O,acetanilide,-1.33,log(mol/L),-1.33,log(mol/L),103-84-4
CC(NC1=CC=CC=C1)=O,acetanilide,-1.33,log(mol/L),-1.33,log(mol/L),-
CC(CCC(C)C)=O,5-methyl-2-hexanone,-1.33,log(mol/L),-1.33,log(mol/L),110-12-3
C=1C=CSC1,thiophene,-1.33,log(mol/L),-1.33,log(mol/L),-
CCSCC,Diethyl sulfide,-1.34,log(mol/L),-1.34,log(mol/L),-
S(=O)(=O)(N)C1=CC=C(N)C=C1,sulfanilamide,-1.34,log(mol/L),-1.34,log(mol/L),-
CCCOC(C)C,propyl isopropyl ether,-1.34,log(mol/L),-1.34,log(mol/L),627-08-7
CCCCC(OC)=O,Propyl propanoate,-1.34,log(mol/L),-1.34,log(mol/L),-
CCCOC(C)C,Propylisopropylether,-1.34,log(mol/L),-1.34,log(mol/L),-
NC1=CC=C(C=C1)S(N)(=O)=O,sulfanilamide,-1.34,log(mol/L),-1.34,log(mol/L),-
OC1=CC(Cl)=CC(Cl)=C1,"3,5-Dichlorophenol",-1.34,log(mol/L),-1.34,log(mol/L),-
CNC(NCCSCC1=C(C)NC=N1)=NC#N,Cimetidine,-1.35,log(mol/L),-1.35,log(mol/L),51481-61-9
NC1=CC=C(C(NCCN(CC)CC)=O)C=C1,Procainamide,>43800.0,?M/L,-1.359,log(mol/L),-
C(CCC)(=O)OCC,Methyl pentanoate,-1.36,log(mol/L),-1.36,log(mol/L),-
C1=CC=CC=C1CCC(C(=O)OCC)NC(C)C(=O)N2C(C(=O)O)CCC2,enalapril,-1.36,log(mol/L),-1.36,log(mol/L),-
CCCCC(OC)=O,methyl valerate,-1.36,log(mol/L),-1.36,log(mol/L),624-24-8
CCC1=CC=CC=C1O,o-ethylphenol,-1.36,log(mol/L),-1.36,log(mol/L),90-00-6
NC1=CC=C(C=C1)S(N)(=O)=O,sulfanilamide,-1.36,log(mol/L),-1.36,log(mol/L),63-74-1
C(C([H])([H])[H])([H])([H])[H],Ethane,-1.36,log(mol/L),-1.36,log(mol/L),-
C=CCCl,3-chloropropylene,-1.36,log(mol/L),-1.36,log(mol/L),107-05-1
O=C(OCC)CC(=O)C(F)(F)F,"Butanoic acid, 4,4,4-trifluoro-3-oxo-, ethyl est",8000.0,mg/L,-1.362,log(mol/L),372-31-6
N=C(N)NN(=O)=O,nitroguanidine,-1.37,log(mol/L),-1.37,log(mol/L),556-88-7
O=C1N(C)C(N(C2=C1N=CN2)C)=O,Theophylline,-1.37,log(mol/L),-1.37,log(mol/L),58-55-9
NC1=CC=CC(Cl)=C1,m-Chloroaniline,-1.37,log(mol/L),-1.37,log(mol/L),-
C(CCC)OC=O,Butyl acetate,-1.37,log(mol/L),-1.37,log(mol/L),-
ClC1=CC(N)=CC=C1,3-chloroaniline,-1.37,log(mol/L),-1.37,log(mol/L),108-42-9
CC(O)CCC(C)C,5-methyl-2-hexanol,-1.38,log(mol/L),-1.38,log(mol/L),627-59-8
OCCCC1=CC=CC=C1,3-phenylpropanol,-1.38,log(mol/L),-1.38,log(mol/L),122-97-4
CC1=CC=C(O)C=C1C,"3,4-Dimethylphenol",-1.38,log(mol/L),-1.38,log(mol/L),-
O=C1C(CC)(CC)C(NC(N1)=O)=O,barbital,-1.39,log(mol/L),-1.39,log(mol/L),57-44-3
O=C1OC(C2=CC=CC=C12)=O,phthalic anhydride,-1.39,log(mol/L),-1.39,log(mol/L),85-44-9
CN1C(N(C2=C(C1=O)NC=N2)C)=O,Theophylline,-1.39,log(mol/L),-1.39,log(mol/L),-
O=C1N(C)C(N(C2=C1N=CN2)C)=O,Theophylline,-1.39,log(mol/L),-1.39,log(mol/L),58-55-9
CC1=CC(=CC(=C1)O)C,"3,5-xylenol",-1.4,log(mol/L),-1.4,log(mol/L),108-68-9
O=C(C1=CC=C(C=C1)N)OCCN(CC)CC,procaine,-1.4,log(mol/L),-1.4,log(mol/L),59-46-1
CC1=CC(=CC(=C1)O)C,"3,5-Dimethylphenol",-1.4,log(mol/L),-1.4,log(mol/L),-
CCCC(O)CCC,4-heptanol,-1.4,log(mol/L),-1.4,log(mol/L),-
CCCC(O)CCC,4-heptanol,-1.4,log(mol/L),-1.4,log(mol/L),589-55-9
CC(NC1=CC=CC=C1Cl)=O,2'-chloroacetanilide,-1.4,log(mol/L),-1.4,log(mol/L),533-17-5
CC1=CC(O)=CC=C1C,"3,4-xylenol",-1.41,log(mol/L),-1.41,log(mol/L),95-65-8
CC(C)Cl,2-chloropropane,-1.41,log(mol/L),-1.41,log(mol/L),-
O=C(O)CCC1=CC=CC=C1,hydrocinnamic acid,-1.41,log(mol/L),-1.41,log(mol/L),501-52-0
CC(Cl)C,2-chloropropane,-1.41,log(mol/L),-1.41,log(mol/L),75-29-6
OC1=CC=C(C(O)=O)C=C1,p-hydroxybenzoic acid,-1.41,log(mol/L),-1.41,log(mol/L),99-96-7
CC(CCCCC)=O,2-Heptanone,-1.42,log(mol/L),-1.42,log(mol/L),110-43-0
CC1(C)C(C(O)=O)CCC1(C)C(O)=O,d-camphoric acid,-1.42,log(mol/L),-1.42,log(mol/L),124-83-4
OC12C(CC3C(O)(C4=C(C(O)=C3C1=O)C(O)=CC=C4)C)C(N(C)C)C(=O)C(=C2O)C(=O)NCN5CCCC5,rolitetracycline,-1.42,log(mol/L),-1.42,log(mol/L),-
CN(C1C2CC3C(C(C4=C(C3(O)C)C=CC=C4O)=O)=C(C2(C(C(C(NCN5CCCC5)=O)=C1O)=O)O)O)C,rolitetracycline,-1.42,log(mol/L),-1.42,log(mol/L),751-97-3
CC(CC(C)C)=O,4-Methyl-2-pentanone,-1.42,log(mol/L),-1.42,log(mol/L),108-10-1
C1(C2=NC=CC=C2)=CC=CC=N1,"2,2'-BIPYRIDINE",-1.42,log(mol/L),-1.42,log(mol/L),366-18-7
OC12C(CC3C(O)(C4=C(C(O)=C3C1=O)C(O)=CC=C4)C)C(N(C)C)C(=O)C(=C2O)C(=O)NCN5CCCC5,rolitetracycline,-1.42,log(mol/L),-1.42,log(mol/L),751-97-3
C1(C2=NC=CC=C2)=CC=CC=N1,"2,2?-bipyridine",-1.42,log(mol/L),-1.42,log(mol/L),366-18-7
CC1=C(O)C=CC=C1C,"2,3-xylenol",-1.43,log(mol/L),-1.43,log(mol/L),526-75-0
CCC1(CC)C(=O)NC(=O)NC1=O,barbital,-1.43,log(mol/L),-1.43,log(mol/L),-
CCCCNCCCC,n-dibutylamine,-1.44,log(mol/L),-1.44,log(mol/L),111-92-2
CSSC,dimethyldisulfide,-1.44,log(mol/L),-1.44,log(mol/L),-
OC(=O)C1=C(C(=O)O)C(C(=O)O)=CC(Br)=C1,"1,2,3-Benzenetricarboxylic acid, 5-bromo-",10300.0,mg/L,-1.448,log(mol/L),34163-34-3
O=C(C1CCCCC1)O,cyclohexanecarboxylic acid,-1.45,log(mol/L),-1.45,log(mol/L),98-89-5
C1=CC=CS1,thiophene,-1.45,log(mol/L),-1.45,log(mol/L),110-02-1
C=12C=CN=CC1C=CC=C2,isoquinoline,-1.45,log(mol/L),-1.45,log(mol/L),119-65-3
CCCCCC(=O)C,2-Heptanone,-1.45,log(mol/L),-1.45,log(mol/L),-
C1=CC=C2C=NC=CC2=C1,isoquinoline,-1.45,log(mol/L),-1.45,log(mol/L),-
CC1=CC(=CC(N(=O)=O)=C1O)N(=O)=O,DNOC,-1.456,log(mol/L),-1.456,log(mol/L),-
NC=1C(C)=CNC(=O)N1,5-methylcytosine,-1.458,log(mol/L),-1.458,log(mol/L),-
CCNC(=S)NCC,"1,3-diethylthiourea",-1.46,log(mol/L),-1.46,log(mol/L),-
S=C(NCC)NCC,"1,3-diethylthiourea",-1.46,log(mol/L),-1.46,log(mol/L),105-55-5
C(C1=CC=C(C=C1)O)(=O)O,5_hydroxybenzoic_acid,34323.2,?M/L,-1.464,log(mol/L),-
NC1=CC(=CC=C1)C(F)(F)F,-,3.74,log(mg/L),-1.467,log(mol/L),98-16-8
CCCCl,1-Chloropropane,-1.47,log(mol/L),-1.47,log(mol/L),-
O=C(O)C1=CSC=C1,thiophene-3-carboxylic acid,-1.47,log(mol/L),-1.47,log(mol/L),88-13-1
ClCCC,1-Chloropropane,-1.47,log(mol/L),-1.47,log(mol/L),540-54-5
NC(OCCCCC)=O,n-amyl carbamate,-1.47,log(mol/L),-1.47,log(mol/L),638-42-6
CCC(O)CCCC,3-heptanol,-1.47,log(mol/L),-1.47,log(mol/L),589-82-2
FC(F)(F)C1=CC=CC(N)=C1,3-trifluoromethylaniline,5460.0,mg/L,-1.47,log(mol/L),98-16-8
CCCCC(O)CC,3-heptanol,-1.47,log(mol/L),-1.47,log(mol/L),-
FC(F)(C1=CC(N)=CC=C1)F,3-trifluoromethylaniline,-1.47,log(mol/L),-1.47,log(mol/L),98-16-8
O=C1NC=CC(N1)=O,Uracil,-1.48,log(mol/L),-1.48,log(mol/L),66-22-8
ClC(Cl)CCl,"1,1,2-trichloroethane",-1.48,log(mol/L),-1.48,log(mol/L),79-00-5
O1C2C34C(C(N(CC3)C)CC5=C4C1=C(OC)C=C5)C=CC2O,Codeine,-1.48,log(mol/L),-1.48,log(mol/L),-
ClCC(Cl)Cl,"1,1,2-trichloroethane",-1.48,log(mol/L),-1.48,log(mol/L),-
O=C1C=CNC(=O)N1,Uracil,-1.488,log(mol/L),-1.488,log(mol/L),-
COC1=CC=C(C=O)C=C1,p-methoxybenzaldehyde,-1.49,log(mol/L),-1.49,log(mol/L),-
O=CC1=CC=C(OC)C=C1,p-methoxybenzaldehyde,-1.49,log(mol/L),-1.49,log(mol/L),123-11-5
C(C1=C(C(=O)O)C=CC=C1)(=O)O,phthalic_acid_form_I,32158.4,?M/L,-1.493,log(mol/L),-
S(=O)(=O)(CCCl)CCCl,bis-(2-chloroethyl)-sulfone,-1.5,log(mol/L),-1.5,log(mol/L),471-03-4
CCCC1NCCCC1,coniine,-1.5,log(mol/L),-1.5,log(mol/L),458-88-8
C=12C=CC=CC1SC=N2,benzothiazole,-1.5,log(mol/L),-1.5,log(mol/L),95-16-9
BrCC=C,3-bromopropylene,-1.5,log(mol/L),-1.5,log(mol/L),-
C=CCBr,3-bromopropylene,-1.5,log(mol/L),-1.5,log(mol/L),106-95-6
ClCCS(=O)(CCCl)=O,bis-(2-chloroethyl)-sulfone,-1.5,log(mol/L),-1.5,log(mol/L),-
C1=CC=C2SC=NC2=C1,benzothiazole,-1.5,log(mol/L),-1.5,log(mol/L),-
CC1=CNC(=O)NC1=O,Thymine,-1.506,log(mol/L),-1.506,log(mol/L),-
O=C(O)CNC(N)=N,guanidinoacetic acid,-1.51,log(mol/L),-1.51,log(mol/L),352-97-6
FC(F)OC(F)(F)C(F)Cl,ETHRANE [HALOETHER],5620.0,mg/L,-1.516,log(mol/L),13838-16-9
OCC(C)(C)CCC,"2,2-dimethyl-1-pentanol",-1.52,log(mol/L),-1.52,log(mol/L),-
C(CC)(CC)C=O,2-Ethylbutanal,-1.52,log(mol/L),-1.52,log(mol/L),-
OC(C1=CC=CC=C1N)=O,2-aminobenzoic acid,-1.52,log(mol/L),-1.52,log(mol/L),118-92-3
O=C1C(C)=CNC(N1)=O,5-methyluracil,-1.52,log(mol/L),-1.52,log(mol/L),65-71-4
CCCC(C)(C)CO,"2,2-Dimethylpentanol",-1.52,log(mol/L),-1.52,log(mol/L),-
C=12C=CC=CC1NC=C2,indole,-1.52,log(mol/L),-1.52,log(mol/L),120-72-9
ClC1=CC=CC=C1N,2-chloroaniline,-1.52,log(mol/L),-1.52,log(mol/L),95-51-2
C(=O)(NS(=O)(C1=CC=C(C=C1)N)=O)C,Sulfacetamide,30204.0,?M/L,-1.52,log(mol/L),-
OC1C=CC2C34C1OC5=C(C=CC(=C35)CC2N(C)CC4)OC,Codeine,-1.52,log(mol/L),-1.52,log(mol/L),76-57-3
NC1=CC=CC=C1Cl,o-Chloroaniline,-1.52,log(mol/L),-1.52,log(mol/L),-
CC(C)CCOC=O,Isopentyl formate,-1.52,log(mol/L),-1.52,log(mol/L),-
C1=CC=C2NC=CC2=C1,indole,-1.52,log(mol/L),-1.52,log(mol/L),-
NCC1=CC=CC=C1,benzylamine,-1.53,log(mol/L),-1.53,log(mol/L),100-46-9
CC1(C)SC2C(NC(=O)C(N)C3=CC=CC=C3)C(=O)N2C1C(O)=O,Ampicillin,-1.54,log(mol/L),-1.54,log(mol/L),-
BrC(Cl)Cl,bromodichloromethane,-1.54,log(mol/L),-1.54,log(mol/L),75-27-4
C1(C2=CC=NC=C2)=CC=NC=C1,"4,4'-Bipyridine",-1.54,log(mol/L),-1.54,log(mol/L),553-26-4
OC1=CC(C)=CC=C1C,"2,5-xylenol",-1.54,log(mol/L),-1.54,log(mol/L),95-87-4
BrC(Cl)Cl,bromodichloromethane,-1.54,log(mol/L),-1.54,log(mol/L),-
C1(C2=CC=NC=C2)=CC=NC=C1,"4,4?-bipyridine",-1.54,log(mol/L),-1.54,log(mol/L),553-26-4
CSC1=NC=2N=CN=CC2N=C1,7-methylthiopteridine,-1.55,log(mol/L),-1.55,log(mol/L),204443-30-1
OCCCC(C)(C)C,"4,4-dimethyl-1-pentanol",-1.55,log(mol/L),-1.55,log(mol/L),3121-79-7
CCCCCC(C)O,2-heptanol,-1.55,log(mol/L),-1.55,log(mol/L),-
OC(C1=CC=CC=C1)=O,Benzoic acid,-1.55,log(mol/L),-1.55,log(mol/L),65-85-0
OC1=CC=C(Cl)C=C1Cl,"2,4-dichlorophenol",-1.55,log(mol/L),-1.55,log(mol/L),-
CN1CCCCC1C(NC2=C(C)C=CC=C2C)=O,"d,l-mepivacaine",-1.55,log(mol/L),-1.55,log(mol/L),96-88-8
CCCCCC(O)C,2-heptanol,-1.55,log(mol/L),-1.55,log(mol/L),543-49-7
O=C(NC1=C(C=CC=C1C)C)C2N(CCCC2)C,Mepivacaine,-1.55,log(mol/L),-1.55,log(mol/L),-
ClC1=CC(Cl)=CC=C1O,"2,4-dichlorophenol",-1.55,log(mol/L),-1.55,log(mol/L),120-83-2
CSC1=CN=C2N=CN=CC2=N1,7-methylthiopteridine,-1.55,log(mol/L),-1.55,log(mol/L),-
COC1=CC(CC=C)=CC=C1O,eugenol,-1.56,log(mol/L),-1.56,log(mol/L),-
CN1C(NC=2NC(NC2C1=O)=O)=O,1-methyluric acid,-1.56,log(mol/L),-1.56,log(mol/L),708-79-2
NS(=O)(C1=CC=CC=C1)=O,benzenesulfonamide,-1.56,log(mol/L),-1.56,log(mol/L),98-10-2
OC1=C(OC)C=C(CC=C)C=C1,eugenol,-1.56,log(mol/L),-1.56,log(mol/L),97-53-0
CCCCC(=O)CC(=O)C,"2,4-octadione",-1.56,log(mol/L),-1.56,log(mol/L),14090-87-0
ClC1=C(C=C(C=C1)O)C,3-methyl-4-chlorophenol,-1.57,log(mol/L),-1.57,log(mol/L),-
CC1=CC(O)=CC=C1Cl,3-methyl-4-chlorophenol,-1.57,log(mol/L),-1.57,log(mol/L),59-50-7
CNC(OC1=C(C2OCCO2)C=CC=C1)=O,dioxacarb,-1.57,log(mol/L),-1.57,log(mol/L),6988-21-2
CNC(=O)OC1=CC=CC=C1C2OCCO2,dioxacarb,-1.57,log(mol/L),-1.57,log(mol/L),-
O=C(C1=CC=C(C=C1)N)OCCN(CC)CC,procaine,-1.57,log(mol/L),-1.57,log(mol/L),-
CC1CN(CC(C)N1)C2=C(F)C(F)=C3C(=C2F)N(C=C(C(O)=O)C3=O)C4CC4,orbifloxacin,>26800.0,?M/L,-1.572,log(mol/L),-
CC(NC1=CC=C(C=C1)C=O)=O,4-formylacetanilide,-1.58,log(mol/L),-1.58,log(mol/L),122-85-0
O=C(C1=CC=C(N)C=C1)OC,methyl-4-aminobenzoate,-1.59,log(mol/L),-1.59,log(mol/L),619-45-4
BrC(C)C,2-bromopropane,-1.59,log(mol/L),-1.59,log(mol/L),-
CC(Br)C,2-bromopropane,-1.59,log(mol/L),-1.59,log(mol/L),75-26-3
CC(C)Br,2-bromopropane,-1.59,log(mol/L),-1.59,log(mol/L),-
NC(C(=O)NC1C2SCC(=C(N2C1=O)C(O)=O)Cl)C3=CC=CC=C3,Cefaclor,-1.59,log(mol/L),-1.59,log(mol/L),-
CC(Cl)CCl,"1,2-dichloropropane",-1.6,log(mol/L),-1.6,log(mol/L),-
CC(Cl)CCl,"1,2-dichloropropane",-1.6,log(mol/L),-1.6,log(mol/L),78-87-5
O=C(CC(C)=O)CC(C)C,"6-methyl-2,4-heptadione",-1.6,log(mol/L),-1.6,log(mol/L),3002-23-1
FC(F)(F)C1=C(C(O)=O)C=CC=C1,trifluoro-o-toluic acid,-1.6,log(mol/L),-1.6,log(mol/L),433-97-6
CN(C)C(=O)NC1=CC=CC=C1,fenuron,-1.6,log(mol/L),-1.6,log(mol/L),-
O=C(O)C(N)CC1=CC=C(O)C(O)=C1,levodopa,-1.6,log(mol/L),-1.6,log(mol/L),-
CCCCC(C)(O)CC,3-methyl-3-heptanol,-1.6,log(mol/L),-1.6,log(mol/L),-
NC(NC1C(NC(N1)=O)=O)=O,allantoin,-1.6,log(mol/L),-1.6,log(mol/L),97-59-6
C1(C2=CC=CC=C2)CO1,styrene oxide,-1.6,log(mol/L),-1.6,log(mol/L),96-09-3
CC1=C(N(C(C(OC)=O)C)C(COC)=O)C(C)=CC=C1,metalaxyl,-1.6,log(mol/L),-1.6,log(mol/L),57837-19-1
NC(=O)NC1NC(=O)NC1=O,allantoin,-1.6,log(mol/L),-1.6,log(mol/L),-
CCI,iodoethane,-1.6,log(mol/L),-1.6,log(mol/L),75-03-6
CCC(C)(O)CCCC,3-methyl-3-heptanol,-1.6,log(mol/L),-1.6,log(mol/L),5582-82-1
OC(C(N)CC1=CC=C(O)C(O)=C1)=O,levodopa,-1.6,log(mol/L),-1.6,log(mol/L),59-92-7
OCC(C)CC(C)C,"2,4-dimethyl-1-pentanol",-1.6,log(mol/L),-1.6,log(mol/L),6305-71-1
CCI,iodoethane,-1.6,log(mol/L),-1.6,log(mol/L),-
CC(C)CC(=O)CC(=O)C,"6-methyl-2,4-heptadione",-1.6,log(mol/L),-1.6,log(mol/L),-
C1OC1C2=CC=CC=C2,styrene oxide,-1.6,log(mol/L),-1.6,log(mol/L),-
O=C(NC1=CC=CC=C1)N(C)C,fenuron,-1.6,log(mol/L),-1.6,log(mol/L),101-42-8
COCC(=O)N(C(C)C(=O)OC)C1=C(C)C=CC=C1C,metalaxyl,-1.601,log(mol/L),-1.601,log(mol/L),-
C(C1=C(C(=O)O)C=CC=C1)(=O)O,phthalic_acid_form_II,24823.5,?M/L,-1.605,log(mol/L),-
CC(C1=CC=C(N)C=C1)=O,p-aminoacetophenone,-1.61,log(mol/L),-1.61,log(mol/L),99-92-3