SMILES,NAME,Water solubility,UNIT {Water solubility},Solubility_log(mol/L),UNIT {Water solubility}.1,CASRN,MolW(Da),NumHAcceptors,NumHDonors,LogP,Lipinski_rule,Solubility(mol/L)
CCCC(C)C1(CC)C(=O)NC(=O)NC1=O,pentobarbital,-2.52,log(mol/L),-2.52,log(mol/L),76-74-4,226.276,3,2,1.1849999999999998,1,0.003019951720402016
CN(C)C1C(=O)C(C(N)=O)=C(O)C2(O)C(=O)C3=C(O)c4c(O)ccc(Cl)c4C(O)C3CC12,demeclocycline,-2.52,log(mol/L),-2.52,log(mol/L),127-33-3,464.8580000000002,9,6,0.10830000000000034,0,0.003019951720402016
CCC(C)n1c(=O)[nH]c(C)c(Br)c1=O,Bromacil,-2.52,log(mol/L),-2.52,log(mol/L),-,261.11899999999997,3,1,1.5785200000000001,1,0.003019951720402016
CN(C)C1C(O)=C(C(N)=O)C(=O)C2(O)C(O)=C3C(=O)c4c(O)ccc(Cl)c4C(O)C3CC12,demeclocycline,-2.52,log(mol/L),-2.52,log(mol/L),127-33-3,464.8580000000002,9,6,0.2649000000000006,0,0.003019951720402016
Cn1cnc2c1c(=O)[nH]c(=O)n2C,theobromine,-2.523,log(mol/L),-2.523,log(mol/L),-,180.16699999999997,5,1,-1.0397,1,0.0029991625189876503
CCC(C)n1c(=O)[nH]c(C)c(Br)c1=O,Bromacil,-2.523,log(mol/L),-2.523,log(mol/L),-,261.11899999999997,3,1,1.5785200000000001,1,0.0029991625189876503
COc1cc(Cl)c(Cl)cc1O,"4,5-dichloroquiaiacol",-2.53,log(mol/L),-2.53,log(mol/L),2460-49-3,193.02900000000002,2,1,2.7076000000000007,1,0.002951209226666387
CCn1cc(C(=O)O)c(=O)c2cc(F)c(N3CCNC(C)C3)c(F)c21,Lomefloxacin,-2.53,log(mol/L),-2.53,log(mol/L),-,351.353,5,2,1.7959,1,0.002951209226666387
CC1CCC(C(C)C)C(O)C1,menthol,-2.53,log(mol/L),-2.53,log(mol/L),89-78-1,156.26899999999998,1,1,2.4395000000000007,1,0.002951209226666387
CC1CCC(C(C)C)C(O)C1,menthol,-2.53,log(mol/L),-2.53,log(mol/L),-,156.26899999999998,1,1,2.4395000000000007,1,0.002951209226666387
CC1c2cccc(O)c2C(O)=C2C(=O)C3(O)C(O)=C(C(N)=O)C(=O)C(N(C)C)C3C(O)C21,Doxycycline,-2.53,log(mol/L),-2.53,log(mol/L),-,444.44000000000017,9,6,-0.5041999999999991,0,0.002951209226666387
COc1cc(Cl)c(Cl)cc1O,"4,5-dichloroquiaiacol",-2.53,log(mol/L),-2.53,log(mol/L),-,193.02900000000002,2,1,2.7076000000000007,1,0.002951209226666387
ClC(Cl)=C(Cl)Cl,tetrachloroethylene,-2.54,log(mol/L),-2.54,log(mol/L),127-18-4,165.834,0,0,3.0682,1,0.0028840315031266055
CC=CCC,trans-2-pentene,-2.54,log(mol/L),-2.54,log(mol/L),-,70.135,0,0,1.9725,1,0.0028840315031266055
COc1cc(NS(=O)(=O)c2ccc(N)cc2)nc(C)n1,sulfamethomidine,-2.54,log(mol/L),-2.54,log(mol/L),3772-76-7,294.33600000000007,6,2,1.17662,1,0.0028840315031266055
CC=CCC,cis-2-Pentene,-2.54,log(mol/L),-2.54,log(mol/L),-,70.135,0,0,1.9725,1,0.0028840315031266055
Oc1cccc2ncccc12,5-hydroxyquinoline,-2.54,log(mol/L),-2.54,log(mol/L),578-67-6,145.161,2,1,1.9404,1,0.0028840315031266055
Oc1cccc2ncccc12,5-hydroxyquinoline,-2.54,log(mol/L),-2.54,log(mol/L),-,145.161,2,1,1.9404,1,0.0028840315031266055
ClC(Cl)=C(Cl)Cl,tetrachloroethylene,-2.54,log(mol/L),-2.54,log(mol/L),-,165.834,0,0,3.0682,1,0.0028840315031266055
CC=CCC,trans-2-pentene,-2.54,log(mol/L),-2.54,log(mol/L),646-04-8,70.135,0,0,1.9725,1,0.0028840315031266055
Fc1ccc(CCl)cc1,p-fluorobenzyl chloride,-2.54,log(mol/L),-2.54,log(mol/L),352-11-4,144.57600000000002,0,0,2.5645000000000007,1,0.0028840315031266055
O=c1cccc2[nH]cccc1-2,5-hydroxyquinoline,-2.54,log(mol/L),-2.54,log(mol/L),-,145.161,1,1,1.4796999999999998,1,0.0028840315031266055
Brc1ccccc1,bromobenzene,446.0,mg/L,-2.547,log(mol/L),108-86-1,157.01,0,0,2.4491000000000005,1,0.002837919028441555
Brc1ccccc1,bromobenzene,-2.55,log(mol/L),-2.55,log(mol/L),108-86-1,157.01,0,0,2.4491000000000005,1,0.002818382931264455
OC(c1ccccc1)c1ccccc1,benzhydrol,-2.55,log(mol/L),-2.55,log(mol/L),91-01-0,184.238,1,1,2.768300000000001,1,0.002818382931264455
Brc1ccccc1,bromobenzene,-2.55,log(mol/L),-2.55,log(mol/L),-,157.01,0,0,2.4491000000000005,1,0.002818382931264455
Cc1cc(Cl)ccc1OC(C)C(=O)O,Mecoprop,-2.55,log(mol/L),-2.55,log(mol/L),93-65-2,214.648,2,1,2.5003199999999994,1,0.002818382931264455
CC(C)C,2-Methylpropane,-2.55,log(mol/L),-2.55,log(mol/L),-,58.123999999999995,0,0,1.6622999999999999,1,0.002818382931264455
O=[N+]([O-])c1ccccc1Cl,o-Chloronitrobenzene,-2.55,log(mol/L),-2.55,log(mol/L),-,157.55599999999998,2,0,2.2482000000000006,1,0.002818382931264455
OC(c1ccccc1)c1ccccc1,benzhydrol,-2.55,log(mol/L),-2.55,log(mol/L),-,184.238,1,1,2.768300000000001,1,0.002818382931264455
CCCOC(=O)c1ccc(O)cc1,Propylparaben,-2.56,log(mol/L),-2.56,log(mol/L),-,180.20299999999997,3,1,1.9589999999999999,1,0.002754228703338166
CC1=C(C(=O)Nc2ccccc2)CCCO1,pyracarbolid,-2.56,log(mol/L),-2.56,log(mol/L),-,217.26799999999994,2,1,2.709500000000001,1,0.002754228703338166
COC12C(COC(N)=O)C3=C(C(=O)C(C)=C(N)C3=O)N1CC1NC12,Mitomycin_C,-2.56,log(mol/L),-2.56,log(mol/L),-,334.33200000000005,8,3,-1.6511999999999971,1,0.002754228703338166
CC=C(C)C,2-Methy-2-Butene,-2.56,log(mol/L),-2.56,log(mol/L),-,70.13499999999999,0,0,1.9725,1,0.002754228703338166
CC1=C(C(=O)Nc2ccccc2)CCCO1,pyracarbolid,-2.56,log(mol/L),-2.56,log(mol/L),24691-76-7,217.26799999999994,2,1,2.709500000000001,1,0.002754228703338166
COc1ccc(NC(=O)N(C)C)cc1Cl,Metoxuron,-2.564,log(mol/L),-2.564,log(mol/L),-,228.67899999999997,2,1,2.4421,1,0.0027289777828080407
CON(C)C(=O)Nc1ccc(Cl)cc1,monolinuron,-2.57,log(mol/L),-2.57,log(mol/L),1746-81-2,214.652,2,1,2.365100000000001,1,0.0026915348039269166
CCC1(CCC(C)C)C(=O)NC(=O)NC1=O,amobarbital,-2.57,log(mol/L),-2.57,log(mol/L),57-43-2,226.27599999999998,3,2,1.1849999999999998,1,0.0026915348039269166
CCC(N)Cc1c[nH]c2ccccc12,etryptamine,-2.57,log(mol/L),-2.57,log(mol/L),2235-90-7,188.274,1,2,2.4477,1,0.0026915348039269166
CCCC,Butane,-2.57,log(mol/L),-2.57,log(mol/L),-,58.123999999999995,0,0,1.8064,1,0.0026915348039269166
CON(C)C(=O)Nc1ccc(Cl)cc1,monolinuron,-2.57,log(mol/L),-2.57,log(mol/L),-,214.652,2,1,2.365100000000001,1,0.0026915348039269166
NC(Cc1ccc(O)cc1)C(=O)O,l-tyrosine,-2.57,log(mol/L),-2.57,log(mol/L),60-18-4,181.19099999999997,3,3,0.3466,1,0.0026915348039269166
CCCCCCCC(C)=O,2-nonanone,-2.58,log(mol/L),-2.58,log(mol/L),821-55-6,142.242,1,0,2.935900000000002,1,0.0026302679918953813
COc1cnc(NS(=O)(=O)c2ccc(N)cc2)nc1,sulfameter,-2.58,log(mol/L),-2.58,log(mol/L),651-06-9,280.30899999999997,6,2,0.8681999999999999,1,0.0026302679918953813
Cc1ccc(O)c(C(CCN(C(C)C)C(C)C)c2ccccc2)c1,Tolterodine,-2.58,log(mol/L),-2.58,log(mol/L),-,325.496,2,1,5.341420000000006,0,0.0026302679918953813
CCCCC(=O)CCCC,5-nonanone,-2.58,log(mol/L),-2.58,log(mol/L),-,142.242,1,0,2.935900000000001,1,0.0026302679918953813
CCCSCCC,Di-n-propylsulfide,-2.58,log(mol/L),-2.58,log(mol/L),-,118.24499999999999,1,0,2.539600000000001,1,0.0026302679918953813
CCCCCCCC(C)=O,2-nonanone,-2.58,log(mol/L),-2.58,log(mol/L),-,142.242,1,0,2.935900000000002,1,0.0026302679918953813
CNC(=O)Oc1cc(C)cc(C)c1,XMC,-2.581,log(mol/L),-2.581,log(mol/L),-,179.219,2,1,2.02164,1,0.002624218543384442
CC(=O)Oc1ccc(Br)cc1C(=O)O,2-(Acetyloxy)-4-bromo-benzoic acid,667.0,mg/L,-2.589,log(mol/L),1503-53-3,259.05499999999995,3,1,2.0726,1,0.0025763211570025753
CCCCCCc1ccc(O)cc1O,4-hexylresorcinol,-2.59,log(mol/L),-2.59,log(mol/L),136-77-6,194.274,2,2,3.2206000000000023,1,0.0025703957827688645
CCCCC(=O)CCCC,5-nonanone,-2.59,log(mol/L),-2.59,log(mol/L),502-56-7,142.242,1,0,2.935900000000001,1,0.0025703957827688645
CCCCCCc1ccc(O)cc1O,4-hexylresorcinol,-2.59,log(mol/L),-2.59,log(mol/L),-,194.274,2,2,3.2206000000000023,1,0.0025703957827688645
C1=CCCCC1,cyclohexene,-2.59,log(mol/L),-2.59,log(mol/L),-,82.146,0,0,2.1166,1,0.0025703957827688645
CCc1cccs1,2-ethylthiophene,-2.59,log(mol/L),-2.59,log(mol/L),872-55-9,112.19699999999997,1,0,2.3105,1,0.0025703957827688645
O=C(O)c1cccc(Cl)c1,m-chlorobenzoic acid,-2.59,log(mol/L),-2.59,log(mol/L),535-80-8,156.56799999999998,1,1,2.0382,1,0.0025703957827688645
C1=CCCCC1,cyclohexene,-2.59,log(mol/L),-2.59,log(mol/L),110-83-8,82.146,0,0,2.1166,1,0.0025703957827688645
CC(C)=CCC1(C(C)C)C(=O)NC(=O)NC1=O,5-(3-Methyl-2-butenyl)-5-isoPrbarbital,-2.593,log(mol/L),-2.593,log(mol/L),-,238.287,3,2,1.3510999999999997,1,0.002552701302661247
COc1ccc(C(O)(c2cncnc2)C2CC2)cc1,ancymidol,-2.596,log(mol/L),-2.596,log(mol/L),-,256.305,4,1,2.1311,1,0.002535128630497907
CC1(C)C(=O)N(Cl)C(=O)N1Cl,"1,3-dichloro-5,5-dimethylhydantoin",-2.6,log(mol/L),-2.6,log(mol/L),118-52-5,197.02100000000002,2,0,1.3368,1,0.0025118864315095794
Cc1ccc(C(=O)O)cc1,p-toluic acid,-2.6,log(mol/L),-2.6,log(mol/L),99-94-5,136.15,1,1,1.69322,1,0.0025118864315095794
c1ccc(CN(CC2=NCCN2)c2ccccc2)cc1,antazoline,-2.6,log(mol/L),-2.6,log(mol/L),91-75-8,265.36,3,1,2.6949000000000014,1,0.0025118864315095794
ClC(Cl)C(Cl)(Cl)Cl,pentachloroethane,-2.6,log(mol/L),-2.6,log(mol/L),76-01-7,202.29500000000002,0,0,3.1603000000000003,1,0.0025118864315095794
COc1ccc(C(O)(c2cncnc2)C2CC2)cc1,ancymidol,-2.6,log(mol/L),-2.6,log(mol/L),12771-68-5,256.305,4,1,2.1311,1,0.0025118864315095794
CCC(N)Cc1c[nH]c2ccccc12,etryptamine,-2.6,log(mol/L),-2.6,log(mol/L),-,188.274,1,2,2.4477,1,0.0025118864315095794
c1ccc(CN(CC2=NCCN2)c2ccccc2)cc1,antazoline,-2.6,log(mol/L),-2.6,log(mol/L),-,265.36,3,1,2.6949000000000014,1,0.0025118864315095794
ClC(Cl)C(Cl)(Cl)Cl,pentachloroethane,-2.6,log(mol/L),-2.6,log(mol/L),-,202.29500000000002,0,0,3.1603000000000003,1,0.0025118864315095794
c1ccc2[nH]c(-c3cscn3)nc2c1,Thiabendazole,-2.6,log(mol/L),-2.6,log(mol/L),-,201.254,3,1,2.6864,1,0.0025118864315095794
O=C(O)Cn1c(=O)sc2cccc(Cl)c21,benazolin,-2.61,log(mol/L),-2.61,log(mol/L),-,243.671,4,1,1.8010000000000004,1,0.002454708915685031
O=C1NC(=O)c2ccccc21,phthalimide,-2.61,log(mol/L),-2.61,log(mol/L),-,147.13299999999998,2,1,0.5702,1,0.002454708915685031
O=C1NC(=O)c2ccccc21,phthalimide,-2.61,log(mol/L),-2.61,log(mol/L),85-41-6,147.13299999999998,2,1,0.5702,1,0.002454708915685031
Nc1ccc(S(=O)(=O)Nc2nccs2)cc1,Sulfathiazole,-2.61,log(mol/L),-2.61,log(mol/L),-,255.32400000000004,5,2,1.5261,1,0.002454708915685031
CCOC(=O)c1ccc(N)cc1,Benzocaine,-2.616,log(mol/L),-2.616,log(mol/L),-,165.19199999999998,3,1,1.4455,1,0.0024210290467361778
O=[N+]([O-])Nc1c(Br)cccc1Br,"Benzenamine, 2,6-dibromo-N-nitro-",715.0,mg/L,-2.617,log(mol/L),54381-71-4,295.918,2,1,2.8152,1,0.0024154608344449406
C#CC(C)OC(=O)Nc1cccc(Cl)c1,Chlorbufam,-2.617,log(mol/L),-2.617,log(mol/L),-,223.65900000000002,2,1,2.9102000000000006,1,0.0024154608344449406
NS(=O)(=O)c1cc2c(cc1Cl)NCNS2(=O)=O,Hydrochlorothiazide,-2.62,log(mol/L),-2.62,log(mol/L),-,297.74500000000006,5,3,-0.35129999999999967,1,0.00239883291901949
Cc1nnc(SCC2=C(C(=O)O)N3C(=O)C(NC(=O)Cn4cnnn4)C3SC2)s1,Cefazolin,-2.62,log(mol/L),-2.62,log(mol/L),-,454.5190000000002,12,2,-0.6360799999999995,0,0.00239883291901949
NS(=O)(=O)c1cc2c(cc1Cl)NCNS2(=O)=O,hydrochlorthiazide,-2.62,log(mol/L),-2.62,log(mol/L),58-93-5,297.74500000000006,5,3,-0.35129999999999967,1,0.00239883291901949
Cc1cc(NS(=O)(=O)c2ccc(N)cc2)no1,sulfamethoxazole,-2.62,log(mol/L),-2.62,log(mol/L),723-46-6,253.28300000000002,5,2,1.3660199999999998,1,0.00239883291901949
CCCCCCCOC(N)=O,n-heptyl carbamate,-2.62,log(mol/L),-2.62,log(mol/L),4248-20-8,159.22899999999998,2,1,2.0521000000000003,1,0.00239883291901949
Cc1cc(NS(=O)(=O)c2ccc(N)cc2)no1,sulfamethoxazole,-2.62,log(mol/L),-2.62,log(mol/L),-,253.28300000000002,5,2,1.3660199999999998,1,0.00239883291901949
O=C(O)c1cc(Br)c(O)cc1O,5_bromo_2_4_dihydroxybenzoic_acid,2397.22,?M/L,-2.62,log(mol/L),-,233.017,3,3,1.5585,1,0.00239883291901949
NS(=O)(=O)c1cc2c(cc1Cl)NCNS2(=O)=O,hydrochlorthiazide,-2.62,log(mol/L),-2.62,log(mol/L),-,297.74500000000006,5,3,-0.35129999999999967,1,0.00239883291901949
CCN1c2ncccc2C(=O)N(C)c2cccnc21,Reverse Transcriptase inhibitor 1,-2.62,log(mol/L),-2.62,log(mol/L),-,254.29299999999998,4,0,2.2245999999999997,1,0.00239883291901949
Nc1ccc(Br)cc1S(=O)(=O)O,"Benzenesulfonic acid, 2-amino-5-bromo-",595.0,mg/L,-2.627,log(mol/L),1576-59-6,252.08900000000003,3,2,1.2780000000000002,1,0.002360478233180578
O=[N+]([O-])OC1COC2C(O[N+](=O)[O-])COC12,isosorbide dinitrate,-2.63,log(mol/L),-2.63,log(mol/L),-,236.13599999999997,8,0,-1.0621999999999998,1,0.0023442288153199225
CCCC(C)Cl,2-chloropentane,-2.63,log(mol/L),-2.63,log(mol/L),625-29-6,106.596,0,0,2.4138,1,0.0023442288153199225
CCC(=O)c1ccc(N)cc1,p-aminopropiophenone,-2.63,log(mol/L),-2.63,log(mol/L),70-69-9,149.193,2,1,1.8615000000000002,1,0.0023442288153199225
CCC(Cl)CC,3-chloropentane,-2.63,log(mol/L),-2.63,log(mol/L),616-20-6,106.59599999999999,0,0,2.4138,1,0.0023442288153199225
CCC1CN2CCC1CC2C(O)c1ccnc2ccccc12,hydrocinchonine,-2.63,log(mol/L),-2.63,log(mol/L),485-65-4,296.41400000000004,3,1,3.388600000000002,1,0.0023442288153199225
O=[N+]([O-])OC1COC2C(O[N+](=O)[O-])COC12,isosorbide dinitrate,-2.63,log(mol/L),-2.63,log(mol/L),87-33-2,236.13599999999997,8,0,-1.0621999999999998,1,0.0023442288153199225
NS(=O)(=O)c1cc2c(cc1Cl)NCNS2(=O)=O,Hydrochlorothiazide,-2.63,log(mol/L),-2.63,log(mol/L),-,297.74500000000006,5,3,-0.35129999999999967,1,0.0023442288153199225
C=CCc1ccccc1OCC(O)CNC(C)C,Alprenolol,2321.89,?M/L,-2.634,log(mol/L),-,249.35399999999996,3,2,2.1528,1,0.0023227367963571076
O=C(O)C=Cc1cccc(Br)c1,M-BROMOCINNAMIC ACID,525.0,mg/L,-2.636,log(mol/L),32862-97-8,227.057,1,1,2.546900000000001,1,0.002312064790175594
Oc1c(Cl)ccc(Cl)c1Cl,"2,3,6-Trichlorophenol",-2.64,log(mol/L),-2.64,log(mol/L),-,197.44799999999998,1,1,3.3523999999999994,1,0.0022908676527677724
C1CCCC1,cyclopentane,-2.64,log(mol/L),-2.64,log(mol/L),287-92-3,70.135,0,0,1.9505000000000001,1,0.0022908676527677724
CN(C)CCN(Cc1cccs1)c1ccccn1,methapyrilene,-2.64,log(mol/L),-2.64,log(mol/L),91-80-5,261.394,4,0,2.7113000000000005,1,0.0022908676527677724
CCC1(c2ccccc2)C(=O)NCNC1=O,Primidone,-2.64,log(mol/L),-2.64,log(mol/L),-,218.25599999999994,2,2,0.5378999999999999,1,0.0022908676527677724
CN(C)CCN(Cc1ccccc1)c1ccccn1,tripelenamine,-2.64,log(mol/L),-2.64,log(mol/L),91-81-6,255.36500000000004,3,0,2.649800000000001,1,0.0022908676527677724
CCC1(C2=CC3CCC(C2)C3)C(=O)NC(=O)NC1=O,reposal,-2.64,log(mol/L),-2.64,log(mol/L),3625-25-0,262.30899999999997,3,2,1.4951999999999996,1,0.0022908676527677724
C1CCCC1,cyclopentane,-2.64,log(mol/L),-2.64,log(mol/L),-,70.135,0,0,1.9505000000000001,1,0.0022908676527677724
CCC1(c2ccccc2)C(=O)NCNC1=O,Primidone,-2.64,log(mol/L),-2.64,log(mol/L),125-33-7,218.25599999999994,2,2,0.5378999999999999,1,0.0022908676527677724
CN(C)CCN(Cc1cccs1)c1ccccn1,methapyrilene,-2.64,log(mol/L),-2.64,log(mol/L),-,261.394,4,0,2.7113000000000005,1,0.0022908676527677724
CN(C)CCN(Cc1ccccc1)c1ccccn1,Tripelennamine,-2.64,log(mol/L),-2.64,log(mol/L),-,255.36500000000004,3,0,2.649800000000001,1,0.0022908676527677724
NC(N)=Nc1nc(CSCCC(N)=NS(N)(=O)=O)cs1,Famotidine,2255.02,?M/L,-2.647,log(mol/L),-,337.456,6,4,-0.7679999999999998,1,0.0022542392121524305
C=C(Br)CC1(C(C)CC)C(=O)NC(=O)NC1=O,butallylonal,-2.647,log(mol/L),-2.647,log(mol/L),-,303.156,3,2,1.6835999999999995,1,0.0022542392121524305
O=C(O)Cc1cccc2ccccc12,1-naphthaceneacetic acid,-2.65,log(mol/L),-2.65,log(mol/L),86-87-3,186.21,1,1,2.4669000000000008,1,0.00223872113856834
CN(C)CCC(c1ccc(Cl)cc1)c1ccccn1,Chlorpheniramine,-2.65,log(mol/L),-2.65,log(mol/L),-,274.795,2,0,3.8186000000000027,1,0.00223872113856834
C=C(Br)CC1(C(C)CC)C(=O)NC(=O)NC1=O,butallylonal,-2.65,log(mol/L),-2.65,log(mol/L),-,303.156,3,2,1.6835999999999995,1,0.00223872113856834
O=c1[nH]c2cc(Cl)ccc2o1,Chlorzoxazone,2205.23,?M/L,-2.657,log(mol/L),-,169.56699999999998,2,1,1.7745,1,0.002202926463053456
CCC1(CCC(C)C)C(=O)NC(=O)NC1=O,5-Ethyl-5-(3-methylbutyl)barbital,-2.658,log(mol/L),-2.658,log(mol/L),-,226.27599999999998,3,2,1.1849999999999998,1,0.0021978598727848252
COC1=CC=C2C3Cc4ccc(OC)c5c4C2(CCN3C)C1O5,Thebaine,-2.66,log(mol/L),-2.66,log(mol/L),-,311.381,4,0,2.424500000000001,1,0.002187761623949552
Fc1cccc(Br)c1,m-Bromofluorobenzene,378.0,mg/L,-2.666,log(mol/L),1073-06-9,175.0,0,0,2.5882000000000005,1,0.0021577444091526667
CN(C)CCC(c1ccc(Cl)cc1)c1ccccn1,Chlorpheniramine,2154.31,?M/L,-2.667,log(mol/L),-,274.795,2,0,3.8186000000000027,1,0.0021527817347243737
FC(F)(F)Br,Bromotrifluoromethane,320.0,mg/L,-2.668,log(mol/L),75-63-8,148.909,0,0,1.9011,1,0.0021478304741305333
Oc1cc(Cl)cc(Cl)c1Cl,"2,3,5-Trichlorophenol",-2.67,log(mol/L),-2.67,log(mol/L),-,197.44799999999998,1,1,3.3523999999999994,1,0.0021379620895022326
CCCOC(=O)c1ccccc1,propyl benzoate,-2.67,log(mol/L),-2.67,log(mol/L),2315-68-6,164.20399999999998,2,0,2.2534,1,0.0021379620895022326
Oc1ccc(Cl)c(Cl)c1Cl,"2,3,4-Trichlorophenol",-2.67,log(mol/L),-2.67,log(mol/L),-,197.448,1,1,3.3524000000000003,1,0.0021379620895022326
Fc1cccc(Br)c1,m-Fluorobromobenzene,-2.67,log(mol/L),-2.67,log(mol/L),-,175.0,0,0,2.5882000000000005,1,0.0021379620895022326
CN1C(=O)NC(=O)C(C)(C2=CCCCC2)C1=O,Hexobarbital,2122.94,?M/L,-2.673,log(mol/L),-,236.27099999999993,3,1,1.2012999999999998,1,0.002123244462000219
CSc1nc(N(C)C)nc(N(C)C)n1,Simetryn,-2.676,log(mol/L),-2.676,log(mol/L),-,213.31,6,0,0.7255,1,0.002108628149933289
O=C1CCC(N2C(=O)c3ccccc3C2=O)C(=O)N1,Thalidomide,-2.676,log(mol/L),-2.676,log(mol/L),-,258.23299999999995,4,1,0.08779999999999993,1,0.002108628149933289
C=CCCC,1-pentene,-2.68,log(mol/L),-2.68,log(mol/L),-,70.13499999999999,0,0,1.9725,1,0.0020892961308540386
c1cnc2c(c1)ccc1ncccc12,"1,7-phenantroline",-2.68,log(mol/L),-2.68,log(mol/L),230-46-6,180.20999999999998,2,0,2.7830000000000004,1,0.0020892961308540386
NS(=O)(=O)c1cc2c(cc1Cl)NC(C(Cl)Cl)NS2(=O)=O,trichlormethiazide,-2.68,log(mol/L),-2.68,log(mol/L),133-67-5,380.66200000000003,5,3,0.8210000000000004,1,0.0020892961308540386
CC(C)N1C(=O)c2ccccc2NS1(=O)=O,bentazon,-2.68,log(mol/L),-2.68,log(mol/L),25057-89-0,240.284,3,1,1.2074999999999998,1,0.0020892961308540386
NS(=O)(=O)c1cc2c(cc1Cl)NC(C(Cl)Cl)NS2(=O)=O,trichlormethiazide,-2.68,log(mol/L),-2.68,log(mol/L),-,380.66200000000003,5,3,0.8210000000000004,1,0.0020892961308540386
C=CCCC,1-pentene,-2.68,log(mol/L),-2.68,log(mol/L),109-67-1,70.13499999999999,0,0,1.9725,1,0.0020892961308540386
C=CCCC=C,"1,5-hexadiene",-2.68,log(mol/L),-2.68,log(mol/L),592-42-7,82.14599999999999,0,0,2.1386000000000003,1,0.0020892961308540386
C=CCCC=C,"1,5-hexadiene",-2.68,log(mol/L),-2.68,log(mol/L),-,82.14599999999999,0,0,2.1386000000000003,1,0.0020892961308540386
CCC(Br)(CC)C(=O)NC(N)=O,carbromal,-2.68,log(mol/L),-2.68,log(mol/L),-,237.09699999999998,2,2,1.1349999999999998,1,0.0020892961308540386
c1cnc2c(c1)ccc1ncccc12,"1,7-phenantroline",-2.68,log(mol/L),-2.68,log(mol/L),-,180.20999999999998,2,0,2.7830000000000004,1,0.0020892961308540386
CCC(Br)(CC)C(=O)NC(N)=O,carbromal,-2.68,log(mol/L),-2.68,log(mol/L),77-65-6,237.09699999999998,2,2,1.1349999999999998,1,0.0020892961308540386
O=C1CCC(N2C(=O)c3ccccc3C2=O)C(=O)N1,Thalidomide,-2.68,log(mol/L),-2.68,log(mol/L),-,258.23299999999995,4,1,0.08779999999999993,1,0.0020892961308540386
Nc1ccc(S(=O)(=O)Nc2nccs2)cc1,Sulfathiazole,2045.72,?M/L,-2.689,log(mol/L),-,255.32400000000004,5,2,1.5261,1,0.002046444636724674
CC(=O)Nc1ccc([N+](=O)[O-])cc1,4-nitroacetanilide,-2.69,log(mol/L),-2.69,log(mol/L),104-04-1,180.16299999999998,3,1,1.5532,1,0.0020417379446695297
CC(Cl)C(C)(C)Cl,"2,3-dichloro-2-methylbutane",-2.69,log(mol/L),-2.69,log(mol/L),507-45-9,141.041,0,0,2.631100000000001,1,0.0020417379446695297
CC(=O)Nc1ccc([N+](=O)[O-])cc1,4-nitroacetanilide,-2.692,log(mol/L),-2.692,log(mol/L),-,180.16299999999998,3,1,1.5532,1,0.002032357010936221
Fc1ccccc1Br,1-Bromo-2-fluorobenzene,353.0,mg/L,-2.695,log(mol/L),1072-85-1,175.0,0,0,2.5882000000000005,1,0.0020183663636815616
CCC1(C2=CCC3CCC2C3)C(=O)NC(=O)NC1=O,reposal,-2.696,log(mol/L),-2.696,log(mol/L),-,262.30899999999997,3,2,1.4951999999999996,1,0.0020137242498623874
Cc1nn(-c2cc(NS(C)(=O)=O)c(Cl)cc2Cl)c(=O)n1C(F)F,Sulfentrazone,780.0,mg/L,-2.696,log(mol/L),122836-35-5,387.19500000000005,6,1,2.41582,1,0.0020137242498623874
Cc1nn(-c2cc(NS(C)(=O)=O)c(Cl)cc2Cl)c(=O)n1C(F)F,-,2.892095,log(mg/L),-2.696,log(mol/L),122836-35-5,387.19500000000005,6,1,2.41582,1,0.0020137242498623874
O=C(O)c1cccc(Br)c1,m-Bromobenzoic acid,402.0,mg/L,-2.699,log(mol/L),585-76-2,201.01899999999998,1,1,2.1473000000000004,1,0.0019998618696327446
O=C1C=C2CC3(O)COc4c(ccc(O)c4O)C3=C2C=C1O,hematein,-2.7,log(mol/L),-2.7,log(mol/L),-,300.266,6,4,1.3295999999999997,1,0.001995262314968879
NCCCCCCCCCCC(=O)O,11-aminoundecanoic acid,-2.7,log(mol/L),-2.7,log(mol/L),2432-99-7,201.30999999999997,2,2,2.5406000000000004,1,0.001995262314968879