SMILES,NAME,Water solubility,UNIT {Water solubility},Solubility_log(mol/L),UNIT {Water solubility}.1,CASRN
ClC1=CC2=C(C=C1)SC3=C(C=CC=C3)N2CCCN4CCN(C)CC4,prochlorperazine,-4.4,log(mol/L),-4.4,log(mol/L),58-38-8
CCCCOC(=O)C1=CC=CC=C1C(=O)OCCCC,dibutylphthalate,-4.4,log(mol/L),-4.4,log(mol/L),-
OC(=O)C1=CC=CC=C1NC2=CC(C(F)(F)F)=CC=C2,flufenamic acid,-4.4,log(mol/L),-4.4,log(mol/L),-
C1C(O)CC2CCC3C4CCC(=O)C4(C)CCC3C2(C)C1,androsterone,-4.4,log(mol/L),-4.4,log(mol/L),-
CN1CCN(CCCN2C3=CC=CC=C3SC4=CC=C(Cl)C=C24)CC1,prochlorperazine,-4.4,log(mol/L),-4.4,log(mol/L),-
BrC1=CC2=C(C=C1)C=CC=C2,2-bromonaphthalene,-4.4,log(mol/L),-4.4,log(mol/L),-
OC1CCC2(C)C(CCC3C2CCC4(C)C3CCC4=O)C1,androsterone,-4.4,log(mol/L),-4.4,log(mol/L),53-41-8
CC12CCC(O)CC1CCC3C2CCC4(C)C3CCC4=O,androsterone,-4.402,log(mol/L),-4.402,log(mol/L),-
BrC1=CC=C2C=CC=CC2=C1,2-Bromonapthalene,-4.41,log(mol/L),-4.41,log(mol/L),-
CCN(CC)C1=NC(Cl)=NC(=N1)N(CC)CC,Chlorazine,-4.411,log(mol/L),-4.411,log(mol/L),-
O=C1C2C3=CC(OC)=C(OC)C=C3OCC2OC4=C1C=CC5=C4CC(C(C)=C)O5,rotenone,-4.42,log(mol/L),-4.42,log(mol/L),83-79-4
CC(=O)C1CCC2C3CCC4=CC(=O)CCC4(C)C3CCC12C,progesterone,-4.42,log(mol/L),-4.42,log(mol/L),-
COC1=CC=2OCC3OC4=C5CC(OC5=CC=C4C(=O)C3C2C=C1OC)C(C)=C,rotenone,-4.42,log(mol/L),-4.42,log(mol/L),-
OC1(C#C)C2(C(C3C(C4=C(C=C(O)C=C4)CC3)CC2)CC1)C,ethinyl estradiol,-4.42,log(mol/L),-4.42,log(mol/L),-
N1C=NC=2N=C(N)NC(=O)C12,Guanine,37.382,?M/L,-4.427,log(mol/L),-
CCOC1=NC(F)=CC2=NC(=NN12)S(=O)(=O)NC3=C(C=CC=C3Cl)C(=O)OC,-,1.20412,log(mg/L),-4.429,log(mol/L),147150-35-4
COC(=O)C1=CC=CC(Cl)=C1NS(=O)(=O)C2=NN3C(OCC)=NC(F)=CC3=N2,CLORANSULAM,16.0,mg/L,-4.429,log(mol/L),147150-35-4
OC1(CCN(CCCC(=O)C2=CC=C(F)C=C2)CC1)C3=CC=C(Cl)C=C3,Haloperidol,-4.43,log(mol/L),-4.43,log(mol/L),-
O=C(CCCN1CCC(C2=CC=C(Cl)C=C2)(O)CC1)C3=CC=C(F)C=C3,Haloperidol,-4.43,log(mol/L),-4.43,log(mol/L),52-86-8
CCC(C1=CC=C(C=C1)O)C(C2=CC=C(O)C=C2)CC,hexestrol,-4.43,log(mol/L),-4.43,log(mol/L),5635-50-7
O=C1CCC2(C)C(CCC3C2CCC4(C)C3CCC4C(C)=O)=C1,progesterone,-4.43,log(mol/L),-4.43,log(mol/L),57-83-0
BrCCCCCCC,1-bromoheptane,-4.43,log(mol/L),-4.43,log(mol/L),-
CCCCCCCBr,1-bromoheptane,-4.43,log(mol/L),-4.43,log(mol/L),629-04-9
CCCCCCCBr,1-bromoheptane,-4.43,log(mol/L),-4.43,log(mol/L),-
CC(C)NC1=NC(NC(C)C)=NC(Cl)=N1,propazine,-4.43,log(mol/L),-4.43,log(mol/L),139-40-2
CCC(C(CC)C1=CC=C(O)C=C1)C2=CC=C(O)C=C2,hexestrol,-4.43,log(mol/L),-4.43,log(mol/L),-
CC(C)NC1=NC(Cl)=NC(NC(C)C)=N1,propazine,-4.43,log(mol/L),-4.43,log(mol/L),-
O=C(C1C2(C(C3C(C4(C(CC3)=CC(=O)CC4)C)CC2)CC1)C)C,progesterone,-4.43,log(mol/L),-4.43,log(mol/L),57-83-0
COP(=S)(OC)SCC(=O)N(C(C)C)C1=CC=C(Cl)C=C1,Anilofos,-4.432,log(mol/L),-4.432,log(mol/L),-
CC1COC(CN2C=NC=N2)(O1)C3=C(Cl)C=C(OC4=CC=C(Cl)C=C4)C=C3,-,1.176091,log(mg/L),-4.433,log(mol/L),119446-68-3
O1CC(C)OC1(CN2N=CN=C2)C3=C(Cl)C=C(OC4=CC=C(Cl)C=C4)C=C3,Difenoconazole,15.0,mg/L,-4.433,log(mol/L),119446-68-3
CCCCCCC=C,1-Octene,-4.44,log(mol/L),-4.44,log(mol/L),-
O=C1C(C2=CC(C(F)(F)F)=CC=C2)=CN(C)C=C1C3=CC=CC=C3,fluridone,-4.44,log(mol/L),-4.44,log(mol/L),59756-60-4
CCCCCCC=C,1-Octene,-4.44,log(mol/L),-4.44,log(mol/L),111-66-0
C(CCC)CCC=C,1-Octene,-4.44,log(mol/L),-4.44,log(mol/L),-
BrC1=CC=C(C2=CC=C(C(O)CC(C3=C(O)C=4C(OC3=O)=CC=CC4)C5=CC=CC=C5)C=C2)C=C1,bromadiolone,-4.445,log(mol/L),-4.445,log(mol/L),-
CN1C=C(C2=CC=CC=C2)C(=O)C(=C1)C3=CC=CC(=C3)C(F)(F)F,fluridone,-4.445,log(mol/L),-4.445,log(mol/L),-
C1(N=NC2=CC=CC=C2)=CC=CC=C1,azobenzene,-4.45,log(mol/L),-4.45,log(mol/L),103-33-3
BrC1=CC=C(C=C1)C2=CC=C(C=C2)C(O)CC(C3=C(C4=C(C=CC=C4)OC3=O)O)C5=CC=CC=C5,bromadiolone,-4.45,log(mol/L),-4.45,log(mol/L),-
N(=NC1=CC=CC=C1)C2=CC=CC=C2,azobenzene,-4.45,log(mol/L),-4.45,log(mol/L),-
ClC1=CC(Cl)=CC=C1OC2=C(O)C=C(Cl)C=C2,triclosan,-4.46,log(mol/L),-4.46,log(mol/L),3380-34-5
C12CCC(C2(CCC3C4(CCC(CC4=CCC13)OC(C)=O)C)C)=O,"5,6-dehydroisoandrosterone acetate",-4.46,log(mol/L),-4.46,log(mol/L),853-23-6
OC1=CC(Cl)=CC=C1OC2=CC=C(Cl)C=C2Cl,triclosan,-4.46,log(mol/L),-4.46,log(mol/L),-
CN(CCC=C1C2=CC=CC=C2CCC3=C1C=CC=C3)C,Amitriptyline,-4.46,log(mol/L),-4.46,log(mol/L),50-48-6
CN(C)CCC=C1C2=CC=CC=C2CCC3=CC=CC=C13,Amitriptyline,-4.46,log(mol/L),-4.46,log(mol/L),-
O(C1=C(O)C=C(C=C1)Cl)C2=C(C=C(C=C2)Cl)Cl,"5-CHLORO-2-(2,4-DICHLOROPHENOXY)PHENOL",10.0,mg/L,-4.462,log(mol/L),3380-34-5
C1CC(C)CCC1C,"1,4-dimethylcyclohexane",-4.47,log(mol/L),-4.47,log(mol/L),-
O=C1N(COC(=O)C)C(=O)C(N1)(C2=CC=CC=C2)C3=CC=CC=C3,3-Ethanoyloxymethylphenytoin,-4.47,log(mol/L),-4.47,log(mol/L),-
CC1CCC(C)CC1,"trans-1,4-Dimethylcyclohexane",-4.47,log(mol/L),-4.47,log(mol/L),-
O=N(C1=C(C)C(N(=O)=O)=CC(=C1OC(C)=O)C(C)(C)C)=O,medinoterb acetate,-4.47,log(mol/L),-4.47,log(mol/L),-
CC1CCC(C)CC1,"1,4-dimethylcyclohexane",-4.47,log(mol/L),-4.47,log(mol/L),589-90-2
C1=C(C(=O)O)C(O)=CC=C1C2=C(F)C=C(F)C=C2,Diflunisal,-4.48,log(mol/L),-4.48,log(mol/L),-
C1=CC=CC=C1C2=C(F)C=C(C(C)C(=O)O)C=C2,Flurbiprofen,-4.48,log(mol/L),-4.48,log(mol/L),-
ClC1=CC(Cl)=CC(Cl)=C1,"1,3,5-trichlorobenzene",-4.48,log(mol/L),-4.48,log(mol/L),108-70-3
CC1(CC(C)CC1)C,"1,1,3-trimethylcyclopentane",-4.48,log(mol/L),-4.48,log(mol/L),4516-69-2
ClC1=CC(Cl)=CC(Cl)=C1,"1,3,5-trichlorobenzene",-4.48,log(mol/L),-4.48,log(mol/L),-
C1(CC(CC1)C)(C)C,"1,1,3-trimethylcyclopentane",-4.48,log(mol/L),-4.48,log(mol/L),-
FC1=CC(C(C(O)=O)C)=CC=C1C2=CC=CC=C2,Flurbiprofen,-4.49,log(mol/L),-4.49,log(mol/L),5104-49-4
CC1=C(CC(O)=O)C2=CC(F)=CC=C2C1=CC3=CC=C(C=C3)S(C)=O,sulindac_form_II,31.9025,?M/L,-4.496,log(mol/L),-
O=C(O)C(C)C1=CC=C2C=C(C=CC2=C1)OC,Naproxen,31.9125,?M/L,-4.496,log(mol/L),-
BrC1=CC(Br)=CC=C1Br,"1,2,4-tribromobenzene",-4.5,log(mol/L),-4.5,log(mol/L),615-54-3
BrC1=C(C=CC(=C1)Br)Br,"1,2,4-tribromobenzene",-4.5,log(mol/L),-4.5,log(mol/L),-
C1(Br)=C(Br)C=C(Br)C=C1,"1,2,4-tribromobenzene",-4.5,log(mol/L),-4.5,log(mol/L),-
ClC1C(Cl)C(Cl)C(Cl)C(Cl)C1Cl,delta-hexachlorocyclohexane,-4.51,log(mol/L),-4.51,log(mol/L),319-86-8
S=P(OCC)(OCC)SCN1N=NC2=CC=CC=C2C1=O,Azinphos Ethyl,10.5,mg/L,-4.517,log(mol/L),2642-71-9
CCOP(=S)(OCC)SCN1N=NC2=C(C=CC=C2)C1=O,-,1.021189,log(mg/L),-4.517,log(mol/L),2642-71-9
FC(F)(C(F)(F)F)C(F)(F)F,OCTAFLUOROPROPANE,5.7,mg/L,-4.518,log(mol/L),76-19-7
ClC1=C(C=C(C(=C1)Cl)C(=CCl)OP(=O)(OC)OC)Cl,Stirofos,-4.52,log(mol/L),-4.52,log(mol/L),-
CN1CCN(CCCN2C3=CC=CC=C3SC4=CC=C(C=C24)C(F)(F)F)CC1,Trifluoperazine,-4.52,log(mol/L),-4.52,log(mol/L),-
FC(F)(F)C1=CC2=C(C=C1)SC3=C(C=CC=C3)N2CCCN4CCN(C)CC4,Trifluoperazine,-4.52,log(mol/L),-4.52,log(mol/L),117-89-5
COP(=O)(OC)OC(=CCl)C1=CC(Cl)=C(Cl)C=C1Cl,Stirofos,-4.522,log(mol/L),-4.522,log(mol/L),-
C1=CC=C(Cl)C=C1C(C2=CC=C(Cl)C=C2)(O)C(=O)OC(C)C,chloropropylate,-4.53,log(mol/L),-4.53,log(mol/L),-
CCCCCCC,Heptane,-4.53,log(mol/L),-4.53,log(mol/L),-
CCCCCCC,n-heptane,-4.53,log(mol/L),-4.53,log(mol/L),142-82-5
O=C(OC(C)C)C(C1=CC=C(Cl)C=C1)(O)C2=CC=C(Cl)C=C2,chloropropylate,-4.53,log(mol/L),-4.53,log(mol/L),-
C(CCC)CCC,n-heptane,-4.53,log(mol/L),-4.53,log(mol/L),-
C1C2C(N)C2CN1C3=C(F)C=C4C(=O)C(C(=O)O)=CN(C5=C(F)C=C(F)C=C5)C4=N3,Trovafloxacin,-4.53,log(mol/L),-4.53,log(mol/L),-
C1=NC=NN1C(C(O)C(C)(C)C)=CC2=CC=C(Cl)C=C2,Uniconazole-P,8.41,mg/L,-4.54,log(mol/L),83657-17-4
ClC1=CC=CC=C1C2=CC=CC=C2,2-chlorobiphenyl,-4.54,log(mol/L),-4.54,log(mol/L),2051-60-7
CC(C)(C)C(O)C(=CC1=CC=C(Cl)C=C1)N2C=NC=N2,-,0.924796,log(mg/L),-4.54,log(mol/L),83657-17-4
ClC1=CC=CC=C1C2=CC=CC=C2,2-chlorobiphenyl,-4.54,log(mol/L),-4.54,log(mol/L),-
CC(C)(C)C(O)C(=CC1=CC=C(Cl)C=C1)N2C=NC=N2,-,0.924796,log(mg/L),-4.54,log(mol/L),83657-22-1
IC1=CC=CC=2C=CC=CC12,1-Iodonapthalene,-4.55,log(mol/L),-4.55,log(mol/L),-
CCNC1=NC(NCC)=NC(Cl)=N1,simazine,-4.55,log(mol/L),-4.55,log(mol/L),122-34-9
CN(C)CCC=C1C2=CC=CC=C2CCC3=CC=CC=C13,amitryptyline,28.2093,?M/L,-4.55,log(mol/L),-
CCNC1=NC(Cl)=NC(NCC)=N1,simazine,-4.55,log(mol/L),-4.55,log(mol/L),-
CCN1C2=NC(C)=CC(C)=C2NC(=O)C3=CC=CN=C13,RTI 15,-4.554,log(mol/L),-4.554,log(mol/L),-
C1(=CC=C(C=C1)Br)I,4-BROMOIODOBENZENE,7.79,mg/L,-4.56,log(mol/L),589-87-7
BrC1=CC=C(I)C=C1,p-Bromoiodobenzene,-4.56,log(mol/L),-4.56,log(mol/L),-
CC(C)(C)C(O)C(CC1=C(Cl)C=C(Cl)C=C1)N2C=NC=N2,-,0.9542425,log(mg/L),-4.562,log(mol/L),75736-33-3
ClC1=CC(Cl)=CC=C1CC(C(O)C(C)(C)C)N2N=CN=C2,DICLOBUTRAZOL ISOMERS,9.0,mg/L,-4.562,log(mol/L),75736-33-3
ClC1=CC=2C(OC(=O)NC2C=C1)(C#CC3CC3)C(F)(F)F,Efavirenz,-4.57,log(mol/L),-4.57,log(mol/L),-
S=P(OC)(OC)OC1=CC(C)=C(SC)C=C1,fenthion,-4.57,log(mol/L),-4.57,log(mol/L),55-38-9
ClC1=C(Cl)C=CC(Cl)=C1Cl,"1,2,3,4-tetrachlorobenzene",-4.57,log(mol/L),-4.57,log(mol/L),634-66-2
O=C1CCC2C(CCC3C2CCC4(C)C3CCC4(C#C)O)=C1,norethisterone,-4.57,log(mol/L),-4.57,log(mol/L),68-22-4
ClC1=CC=C(Cl)C(Cl)=C1Cl,"1,2,3,4-tetrachlorobenzene",-4.57,log(mol/L),-4.57,log(mol/L),-
ClC1=C(C(=CC=C1Cl)Cl)Cl,"1,2,3,4-tetrachlorobenzene",-4.57,log(mol/L),-4.57,log(mol/L),-
OCC(O)COC(=O)C1=CC=CC=C1NC2=CC=NC=3C=C(Cl)C=CC23,Glafenine,-4.57,log(mol/L),-4.57,log(mol/L),-
CC12CCC3C(CCC4=CC(=O)CCC34O)C1CCC2(O)C#C,norethisterone,-4.57,log(mol/L),-4.57,log(mol/L),-
COP(=S)(OC)OC1=CC=C(SC)C(C)=C1,fenthion,-4.57,log(mol/L),-4.57,log(mol/L),-
OCC(O)COC(=O)C1=CC=CC=C1NC2=CC=NC=3C=C(Cl)C=CC23,Glafenine,-4.571,log(mol/L),-4.571,log(mol/L),-
CCOC(=O)C1=CC=CC=C1S(=O)(=O)NN(C=O)C2=NC(Cl)=CC(OC)=N2,Chlorimuron-ethyl (ph 7),-4.576,log(mol/L),-4.576,log(mol/L),-
C(C1=CC=CN=C1NC2=CC(=CC=C2)C(F)(F)F)(=O)O,niflumic_acid,26.3681,?M/L,-4.579,log(mol/L),-
O=C1C=C2CCC3C4CCC(O)(C(=O)COC(=O)C(C)(C)C)C4(C)CC(O)C3C2(C)C=C1,prednisolone-21-trimethylacetate,-4.58,log(mol/L),-4.58,log(mol/L),1107-99-9
CC12C=CC(C=C2CCC3C1C(O)CC4(C3CCC4(O)C(COC(C(C)(C)C)=O)=O)C)=O,prednisolone-21-trimethylacetate,-4.58,log(mol/L),-4.58,log(mol/L),1107-99-9
CC1=C(C=C(C(=C1)C)C)C,"1,2,4,5-Tetramethylbenzene",-4.59,log(mol/L),-4.59,log(mol/L),-
CC1=CC(C)=C(C)C=C1C,"1,2,4,5-Tetramethylbenzene",-4.59,log(mol/L),-4.59,log(mol/L),-
ClC1C(Cl)C(Cl)C(Cl)C(Cl)C1Cl,gamma-hexachlorocyclohexane,-4.59,log(mol/L),-4.59,log(mol/L),58-89-9
COC1=CC(=O)CC(C)C12OC3=C(Cl)C(OC)=CC(OC)=C3C2=O,Griseofulvin,-4.59,log(mol/L),-4.59,log(mol/L),-
O=C1NC=2CCCC2C(=O)N1C3CCCCC3,Lenacil,-4.594,log(mol/L),-4.594,log(mol/L),-
ClC1C(Cl)C(Cl)C(Cl)C(Cl)C1Cl,gamma-hexachlorocyclohexane,-4.6,log(mol/L),-4.6,log(mol/L),58-89-9
C1=CC(N)=CC=C1C(=O)OCCCCCCC,heptyl-4-aminobenzoate,-4.6,log(mol/L),-4.6,log(mol/L),14309-40-1
S=C=NC1=CC=CC2=C1C=CC=C2,1-naphthyl isothiocyanate,-4.6,log(mol/L),-4.6,log(mol/L),551-06-4
C12=C(C=CC=C1)OC3=C2C=CC=C3,dibenzofuran,-4.6,log(mol/L),-4.6,log(mol/L),132-64-9
O=C(C1C2(C(C3C(C4(C(CC3)=CC(=O)CC4)C)CC2)CC1)C)C,progesterone,-4.6,log(mol/L),-4.6,log(mol/L),-
O=C1C=C2CCC3C4CCC(O)(C(=O)COC(=O)C(C)(C)C)C4(C)CC(O)C3C2(C)C=C1,Prednisolone 21-Trimethylacetate,-4.6,log(mol/L),-4.6,log(mol/L),-
COC1=CC=C2N(C(=O)C3=CC=C(Cl)C=C3)C(C)=C(CC(=O)O)C2=C1,Indomethacin,-4.6,log(mol/L),-4.6,log(mol/L),-
CCCCCCCOC(C1=CC=C(N)C=C1)=O,heptyl-4-aminobenzoate,-4.6,log(mol/L),-4.6,log(mol/L),14309-40-1
O1C=2C=CC=CC2C=3C=CC=CC13,Dibenzofurane,-4.6,log(mol/L),-4.6,log(mol/L),-
C=1C=2C(N=C=S)=CC=CC2C=CC1,Naphthyl isothiocyanate,0.025,mmol/L,-4.602,log(mol/L),551-06-4
O=C1C2=CC=CC=C2N=C(C3=CC=CC=C3)O1,"2-phenyl-3,1-benzoxazin-4-one",-4.61,log(mol/L),-4.61,log(mol/L),1022-46-4
ClC1=C(OC)C=C(OC)C2=C1OC3(C(OC)=CC(=O)CC3C)C2=O,Griseofulvin,-4.61,log(mol/L),-4.61,log(mol/L),126-07-8
ClC1=C2C(=C(C=C1OC)OC)C(C3(O2)C(CC(C=C3OC)=O)C)=O,Griseofulvin,-4.61,log(mol/L),-4.61,log(mol/L),-
CCCCCCCCCCCC(O)=O,vulvic acid,-4.62,log(mol/L),-4.62,log(mol/L),143-07-7
C1(CCC2=CC=CC=C2)=CC=CC=C1,bibenzyl,-4.62,log(mol/L),-4.62,log(mol/L),103-29-7
CC1=CC=C(C=C1)C2=CC=CC=C2,4-Methylbiphenyl,-4.62,log(mol/L),-4.62,log(mol/L),-
ClC1=CC=C(C=C1)C(N2C(C)=C(CC(O)=O)C=3C=C(OC)C=CC32)=O,Indomethacin,-4.62,log(mol/L),-4.62,log(mol/L),53-86-1
C(CC1=CC=CC=C1)C2=CC=CC=C2,bibenzyl,-4.62,log(mol/L),-4.62,log(mol/L),-
CC12CCC3C(CCC4=CC(=O)CCC34)C1CCC2(O)C#C,Norethindrone,-4.63,log(mol/L),-4.63,log(mol/L),-
ClC1=CC(Cl)=C(Cl)C(Cl)=C1,"1,2,3,5-tetrachlorobenzene",-4.63,log(mol/L),-4.63,log(mol/L),-
CC(=O)OCC(=O)C1CCC2C3CCC4=CC(=O)CCC4(C)C3CCC12C,deoxycorticosterone acetate,-4.63,log(mol/L),-4.63,log(mol/L),-
CC12C(C(COC(C)=O)=O)CCC1C3CCC4=CC(=O)CCC4(C3CC2)C,deoxycorticosterone acetate,-4.63,log(mol/L),-4.63,log(mol/L),56-47-3
C1CC2=CC=CC=3C=CC=C1C23,Acenapthene,-4.63,log(mol/L),-4.63,log(mol/L),-
CCCCCCCCCC(OC)=O,methyl caprate,-4.63,log(mol/L),-4.63,log(mol/L),110-42-9
ClC1=C(C=C(C=C1Cl)Cl)Cl,"1,2,3,5-tetrachlorobenzene",-4.63,log(mol/L),-4.63,log(mol/L),-
C1CC2=CC=CC3=C2C1=CC=C3,Acenaphthene,-4.63,log(mol/L),-4.63,log(mol/L),-
ClC1=C(Cl)C=C(Cl)C=C1Cl,"1,2,3,5-tetrachlorobenzene",-4.63,log(mol/L),-4.63,log(mol/L),634-90-2
C=12C=CC=C3CCC(C31)=CC=C2,Acenaphthene,-4.63,log(mol/L),-4.63,log(mol/L),83-32-9
CCOC(=O)NC1=CC=CC(OC(=O)NC2=CC=CC=C2)=C1,Desmedipham,-4.632,log(mol/L),-4.632,log(mol/L),-
CCN1C2=NC=CC=C2N(C)C(=S)C3=CC=CN=C13,RTI 16,-4.634,log(mol/L),-4.634,log(mol/L),-
CCCCCC1=CC=CC=C1,Pentylbenzene,-4.64,log(mol/L),-4.64,log(mol/L),-
CCCCCC1=CC=CC=C1,n-pentylbenzene,-4.64,log(mol/L),-4.64,log(mol/L),538-68-1
C(CCC1=CC=CC=C1)CC,n-pentylbenzene,-4.64,log(mol/L),-4.64,log(mol/L),-
ClC1C(Cl)C(Cl)C(Cl)C(Cl)C1Cl,lindane,-4.64,log(mol/L),-4.64,log(mol/L),-
ClC1C(Cl)C(Cl)C(Cl)C(Cl)C1Cl,lindane,-4.64,log(mol/L),-4.64,log(mol/L),58-89-9
OC1CC=2C(CC1)(C)C3C(CC2)C4C(CC3)(C)C(CC4)C(C)=O,pregnenolone,-4.65,log(mol/L),-4.65,log(mol/L),145-13-1
CC(=O)C1CCC2C3CC=C4CC(O)CCC4(C)C3CCC12C,pregnenolone,-4.65,log(mol/L),-4.65,log(mol/L),-
C1C(O)CC2=CCC3C4CCC(C(=O)C)C4(C)CCC3C2(C)C1,pregnenolone,-4.65,log(mol/L),-4.65,log(mol/L),-
CC1(C)CCC(=CC2=CC=C(Cl)C=C2)C1(O)CN3C=NC=N3,-,0.845098,log(mg/L),-4.657,log(mol/L),131983-72-7
C1=CC(Cl)=CC=C1C=C2CCC(C)(C)C2(O)CN3N=CN=C3,Triticonazole,7.0,mg/L,-4.657,log(mol/L),131983-72-7
CCOP(=S)(OCC)OC1=CC=C(C=C1)N(=O)=O,parathion,-4.66,log(mol/L),-4.66,log(mol/L),56-38-2
O=C(C1=CC=CC=C1C(OCC(C)C)=O)OCC(C)C,diisobutyl phthalate,-4.66,log(mol/L),-4.66,log(mol/L),84-69-5
CCOP(=S)(OCC)OC1=CC=C(C=C1)N(=O)=O,parathion,-4.66,log(mol/L),-4.66,log(mol/L),-
C1=CC(F)=CC=C1C2(CN3N=CN=C3)OC2C4=CC=CC=C4Cl,Epoxiconazole,7.1,mg/L,-4.667,log(mol/L),106325-08-0
COC1=CC=C(CCN(C)CCCC(C#N)(C(C)C)C2=CC=C(OC)C(OC)=C2)C=C1OC,Verapamil,-4.67,log(mol/L),-4.67,log(mol/L),-
CCCCCCCCCCCCO,dodecanol,-4.67,log(mol/L),-4.67,log(mol/L),112-53-8
O=C1N(COC(=O)CCCC)C(=O)C(N1)(C2=CC=CC=C2)C3=CC=CC=C3,3-Pentanoyloxymethylphenytoin,-4.678,log(mol/L),-4.678,log(mol/L),-
CC1=CC=CC=2C(C)=CC=CC12,"1,5-Dimethlnapthalene",-4.679,log(mol/L),-4.679,log(mol/L),-
C1=CC(Cl)=CC=C1CC2CCC(C(C)C)C2(O)CN3N=CN=C3,IPCONAZOLE,6.93,mg/L,-4.683,log(mol/L),125225-28-7
CC(C)C1CCC(CC2=CC=C(Cl)C=C2)C1(O)CN3C=NC=N3,-,0.8407332,log(mg/L),-4.683,log(mol/L),125225-28-7
CCCCCCCCCCCC(OC)=O,methyl laurate,-4.69,log(mol/L),-4.69,log(mol/L),111-82-0
CCCCCCCCCC(=O)OC,Methyl decanoate,-4.69,log(mol/L),-4.69,log(mol/L),-
CCCCCCCCCCCC(OC)=O,methyl laurate,-4.69,log(mol/L),-4.69,log(mol/L),-
N(C)CCCC12C3=C(C(C4=CC=CC=C14)CC2)C=CC=C3,Maprotiline,20.3495,?M/L,-4.691,log(mol/L),-
C1=CC(F)=CC=C1C2(CN3N=CN=C3)OC2C4=CC=CC=C4Cl,BAS 480F,6.63,mg/L,-4.697,log(mol/L),106325-08-0
C1=CC(F)=CC=C1C2(CN3N=CN=C3)OC2C4=CC=CC=C4Cl,Epoxiconazole,6.63,mg/L,-4.697,log(mol/L),106325-08-0
CC(C(O)=O)C1=CC=C2C(=C1)NC=3C=CC(Cl)=CC23,carprofen,20.0337,?M/L,-4.698,log(mol/L),-
CCOC(=O)NCCOC1=CC=C(OC2=CC=CC=C2)C=C1,Fenoxycarb,-4.7,log(mol/L),-4.7,log(mol/L),-
O=C(C1=CC(Cl)=CC=C1O)NC2=CC=C(N(=O)=O)C=C2Cl,niclosamide,-4.7,log(mol/L),-4.7,log(mol/L),50-65-7
S1C2=C(N(CCCN(C)C)C=3C1=CC=CC3)C=C(C=C2)C(F)(F)F,triflupromazine,-4.7,log(mol/L),-4.7,log(mol/L),-
CC(OCCN1CCN(CC1)CCCN2C3=C(SC4=CC=C(C=C24)Cl)C=CC=C3)=O,thiopropazate,-4.7,log(mol/L),-4.7,log(mol/L),84-06-0
OC1=CC=C(Cl)C=C1C(=O)NC2=CC=C(C=C2Cl)N(=O)=O,niclosamide,-4.7,log(mol/L),-4.7,log(mol/L),-
ClC1=CC(N(=O)=O)=CC=C1NC(=O)C2=CC(Cl)=CC=C2O,niclosamide,-4.7,log(mol/L),-4.7,log(mol/L),-
CC(=O)OCCN1CCN(CCCN2C3=CC=CC=C3SC4=CC=C(Cl)C=C24)CC1,thiopropazate,-4.7,log(mol/L),-4.7,log(mol/L),-
CCN1C2=CC=CC=C2N(C)C(=S)C3=CC=CN=C13,RTI 17,-4.706,log(mol/L),-4.706,log(mol/L),-
O=C1CCC2(C)C(CCC3C2CCC4(C)C3CCC4(O)C(C)=O)=C1,17-a-hydroxyprogesterone,-4.71,log(mol/L),-4.71,log(mol/L),68-96-2
FC12C(C3C(C(OC(=O)CCCC)(C(C3)C)C(=O)CO)(CC1O)C)CCC=4C2(C)C=CC(=O)C4,betamethasone-17-valerate,-4.71,log(mol/L),-4.71,log(mol/L),-
O=C1C=CC2(C)C(CCC3C2(F)C(O)CC4(C)C3CC(C)C4(OC(CCCC)=O)C(CO)=O)=C1,betamethasone-17-valerate,-4.71,log(mol/L),-4.71,log(mol/L),2152-44-5
CCOC(=O)CCN(SN(C)C(=O)OC1=CC=CC=2CC(C)(C)OC21)C(C)C,Benfuracarb,-4.71,log(mol/L),-4.71,log(mol/L),-
CCCCC(=O)OC1(C(C)CC2C3CCC4=CC(=O)C=CC4(C)C3(F)C(O)CC12C)C(=O)CO,betamethasone-17-valerate,-4.71,log(mol/L),-4.71,log(mol/L),-
CC1=CC=2C=CC=CC2C=C1C,"2,3-dimethylnaphthalene",-4.72,log(mol/L),-4.72,log(mol/L),581-40-8
CC1=CC=2C=CC=CC2C=C1C,"2,3-dimethylnaphthalene",-4.72,log(mol/L),-4.72,log(mol/L),-
CC1=C(C=C2C(=C1)C=CC=C2)C,"2,3-dimethylnaphthalene",-4.72,log(mol/L),-4.72,log(mol/L),-
OC=1C2=C(C=CC=C2)C=C3C=CC=CC31,1-anthranol,-4.73,log(mol/L),-4.73,log(mol/L),529-86-2
C1=CC=C2C(O)=C3C=CC=CC3=CC2=C1,9-anthrol,-4.73,log(mol/L),-4.73,log(mol/L),-
CCOC(=O)C1=CN=CN1C(C)C2=CC=CC=C2,Etomidate,-4.735,log(mol/L),-4.735,log(mol/L),-
CC(C)CC(C)(C)C,"2,2,4-Trimethylpentane",-4.74,log(mol/L),-4.74,log(mol/L),-
C1(CCCC1)CCC,n-propylcyclopentane,-4.74,log(mol/L),-4.74,log(mol/L),-
C(CC(C)C)(C)(C)C,"2,2,4-Trimethylpentane",-4.74,log(mol/L),-4.74,log(mol/L),-
C1=CC=C2SC3=CC=CC=C3N(CC4CN(C)CCC4)C2=C1,mepazine,-4.74,log(mol/L),-4.74,log(mol/L),-
CCCC1CCCC1,n-propylcyclopentane,-4.74,log(mol/L),-4.74,log(mol/L),2040-96-2
C1=CC=C2SC3=CC=CC=C3N(CC4CN(C)CCC4)C2=C1,mepazine,-4.74,log(mol/L),-4.74,log(mol/L),60-89-9
CC=1C=2C=CC=C(C)C2C=CC1,"1,5-dimethylnaphthalene",-4.74,log(mol/L),-4.74,log(mol/L),571-61-9
CC1=CC=CC2=C1C=CC=C2C,"1,5-dimethylnaphthalene",-4.74,log(mol/L),-4.74,log(mol/L),-
CCCC1CCCC1,Propylcyclopentane,-4.74,log(mol/L),-4.74,log(mol/L),-
CC12CCC3C(CCC4CC(=O)CCC34C)C1CCC2O,Stanolone,-4.743,log(mol/L),-4.743,log(mol/L),-
CCN1C2=CC=CC=C2N(C)C(=O)C3=CC=CC=C13,RTI 19,-4.749,log(mol/L),-4.749,log(mol/L),-
S1C=2C(N(CC3CCCN(C3)C)C=4C1=CC=CC4)=CC=CC2,Pecazine,-4.75,log(mol/L),-4.75,log(mol/L),-
CCOP(=S)(OCC)SCSC(C)(C)C,Terbufos,-4.755,log(mol/L),-4.755,log(mol/L),-
COC(=O)C1=C(C)NC(=C(C1C2=CC=CC=C2N(=O)=O)C(=O)OC)C,Nifedipine,-4.76,log(mol/L),-4.76,log(mol/L),-
S(=O)(=O)(NC1=CC=2C=C(NC2C=C1)C(=O)N3CCN(CC3)C=4N=CC=CC4NC(C)C)C,Delavirdine,-4.76,log(mol/L),-4.76,log(mol/L),-
O=C(NC1=CC(Cl)=C(Cl)C=C1)N(C)CCCC,neburon,-4.77,log(mol/L),-4.77,log(mol/L),555-37-3
CCCCN(C)C(=O)NC1=CC=C(Cl)C(Cl)=C1,neburon,-4.77,log(mol/L),-4.77,log(mol/L),-
CC(=O)CC(C1=CC=CC=C1)C2=C(O)C=3C=CC=CC3OC2=O,Warfarin,16.455,?M/L,-4.784,log(mol/L),-
CC(CN(C)C)CN1C2=CC=CC=C2CCC3=CC=CC=C13,Trimipramine,16.2552,?M/L,-4.789,log(mol/L),-
O=C1CCC2C(CCC3C4CCC(C#C)(O)C4(C)CCC23)=C1,norethisterone acetate,-4.79,log(mol/L),-4.79,log(mol/L),51-98-9
CC(=O)OC1(CCC2C3CCC4=CC(=O)CCC4C3CCC12C)C#C,norethisterone acetate,-4.79,log(mol/L),-4.79,log(mol/L),51-98-9
C1C2=CC=CC=C2N(CCF)C(=O)C3=CC=CC=C13,RTI 20,-4.799,log(mol/L),-4.799,log(mol/L),-
C#CC1(CCC2C3CCC4=CC(=O)CCC4C3CCC21C)OC(C)=O,Norethindrone acetate,-4.8,log(mol/L),-4.8,log(mol/L),-
CCCCCCCCCCCCO,1-Dodecanol,-4.8,log(mol/L),-4.8,log(mol/L),-
CC12CC1(C)C(=O)N(C2=O)C3=CC(Cl)=CC(Cl)=C3,Procymidone,-4.8,log(mol/L),-4.8,log(mol/L),-
CC(C)C(C)C(C)C,"2,3,4-Trimethylpentane",-4.8,log(mol/L),-4.8,log(mol/L),-
C(C(C)C)(C(C)C)C,"2,3,4-Trimethylpentane",-4.8,log(mol/L),-4.8,log(mol/L),-
CC(=O)OC1(CCC2C3CCC4=CC(=O)CCC4C3CCC12C)C#C,Norethindrone acetate,-4.8,log(mol/L),-4.8,log(mol/L),-
C1=CC=C(C)C=C1NC(=O)OC2=CC=CC(NC(=O)OC)=C2,Phenmedipham,-4.8,log(mol/L),-4.8,log(mol/L),-
S1(=O)(=O)N(C)C(=C(C2=CC=CC=C12)O)C(NC3=CC=CC=N3)=O,Piroxicam,15.7828,?M/L,-4.802,log(mol/L),-
COC(=O)NC1=CC=CC(OC(=O)NC2=CC=CC(C)=C2)=C1,Phenmedipham,-4.805,log(mol/L),-4.805,log(mol/L),-
C1(=CC=C(C(Br)=C1)Br)Br,"1,2,4-tribromobenzene",4.9,mg/L,-4.808,log(mol/L),615-54-3
CCCCCCCI,1-iodoheptane,-4.81,log(mol/L),-4.81,log(mol/L),4282-40-0
CCCCCCCI,1-iodoheptane,-4.81,log(mol/L),-4.81,log(mol/L),-
C1=CC=C2CN(C3=CC=C(C(C)C(=O)O)C=C3)C(=O)C2=C1,Indoprofen,-4.82,log(mol/L),-4.82,log(mol/L),-