SMILES,NAME,Water solubility,UNIT {Water solubility},Solubility_log(mol/L),UNIT {Water solubility}.1,CASRN,MolW(Da),NumHAcceptors,NumHDonors,LogP,Lipinski_rule,Solubility(mol/L)
Clc1ccc(Cl)c(-c2ccccc2Cl)c1,"2,2?,5-PCB",-6.02,log(mol/L),-6.02,log(mol/L),-,257.547,0,0,5.313800000000002,0,9.549925860214369e-07
Clc1ccc(Cl)c(-c2ccccc2Cl)c1,"2,2?,5-pcb",-6.02,log(mol/L),-6.02,log(mol/L),37680-65-2,257.547,0,0,5.313800000000002,0,9.549925860214369e-07
CC1(C)C(C(=O)OC(C#N)c2cccc(Oc3ccccc3)c2)C1(C)C,Fenpropathrin,-6.025,log(mol/L),-6.025,log(mol/L),-,349.43000000000006,4,0,5.268980000000004,0,9.440608762859226e-07
CCCCCCCCCCCCCCO,myristyl alcohol,-6.05,log(mol/L),-6.05,log(mol/L),112-72-1,214.39299999999994,1,1,4.679800000000005,1,8.912509381337459e-07
CCCCCC1CCCC1,Pentylcyclopentane,-6.08,log(mol/L),-6.08,log(mol/L),-,140.26999999999998,0,0,3.7569000000000026,1,8.317637711026709e-07
COP(=S)(OC)Oc1cc(Cl)c(Br)cc1Cl,bromophos,0.3,mg/L,-6.086,log(mol/L),2104-96-3,366.0,4,0,4.652000000000002,1,8.203515443298177e-07
Brc1ccc(Oc2ccc(Br)cc2Br)cc1,"BDE-028; 2,4,4'-tribromodiphenyl ether",8.21E-4,mmol/L,-6.086,log(mol/L),41318-75-6,406.899,1,0,5.766400000000002,0,8.203515443298177e-07
COP(=S)(OC)Oc1cc(Cl)c(Br)cc1Cl,bromophos,-6.09,log(mol/L),-6.09,log(mol/L),-,366.0,4,0,4.652000000000002,1,8.128305161640995e-07
COP(=S)(OC)Oc1cc(Cl)c(Br)cc1Cl,bromophos,-6.09,log(mol/L),-6.09,log(mol/L),2104-96-3,366.0,4,0,4.652000000000002,1,8.128305161640995e-07
CC(C)(C)c1ccc(C(O)CCCN2CCC(C(O)(c3ccccc3)c3ccccc3)CC2)cc1,Terfenadine,-6.09,log(mol/L),-6.09,log(mol/L),-,471.6850000000001,3,2,6.445800000000008,0,8.128305161640995e-07
C=C(C)CN(CC)c1c([N+](=O)[O-])cc(C(F)(F)F)cc1[N+](=O)[O-],Ethalfluralin,-6.124,log(mol/L),-6.124,log(mol/L),-,333.266,5,0,3.9242000000000035,1,7.516228940182061e-07
O=C(O)c1cc(N=Nc2ccc(S(=O)(=O)Nc3ccccn3)cc2)ccc1O,Sulfasalazine,0.726312,?M/L,-6.139,log(mol/L),-,398.4000000000001,7,3,3.7016000000000013,1,7.261059574351543e-07
Clc1ccc(-c2c(Cl)cccc2Cl)cc1,"2,4,6-pcb",-6.14,log(mol/L),-6.14,log(mol/L),-,257.547,0,0,5.313800000000002,0,7.244359600749906e-07
Clc1cc(Cl)c(-c2ccccc2)c(Cl)c1,"2,4,6-pcb",-6.14,log(mol/L),-6.14,log(mol/L),-,257.547,0,0,5.313800000000002,0,7.244359600749906e-07
Clc1cc(Cl)c(-c2ccccc2)c(Cl)c1,"2,4,6-pcb",-6.14,log(mol/L),-6.14,log(mol/L),35693-92-6,257.547,0,0,5.313800000000002,0,7.244359600749906e-07
O=c1c(C2CC(c3ccc(-c4ccc(Br)cc4)cc3)Cc3ccccc32)c(O)sc2ccccc12,Difethialone,0.39,mg/L,-6.141,log(mol/L),104653-34-1,539.4940000000003,3,1,8.258500000000005,0,7.227698036021703e-07
CCCCCCOC(=O)c1ccccc1C(=O)OCCCCCC,Dihexyl phthalate,-6.144,log(mol/L),-6.144,log(mol/L),-,334.45600000000024,4,0,5.160800000000005,0,7.177942912713615e-07
c1cc2ccc3cccc4ccc(c1)c2c34,pyrene,-6.176,log(mol/L),-6.176,log(mol/L),-,202.25599999999997,0,0,4.584000000000002,1,6.668067692136218e-07
ClC1=C(Cl)C2(Cl)C3C4CC(C5OC45)C3C1(Cl)C2(Cl)Cl,endrin,-6.18,log(mol/L),-6.18,log(mol/L),-,380.913,1,0,4.481400000000002,1,6.606934480075964e-07
ClC1=C(Cl)C2(Cl)C3C4CC(C5OC45)C3C1(Cl)C2(Cl)Cl,endrin,-6.18,log(mol/L),-6.18,log(mol/L),72-20-8,380.913,1,0,4.481400000000002,1,6.606934480075964e-07
Brc1ccc(Oc2ccc(Br)cc2)cc1,"4,4'-Dibromodiphenyl ether; BDE-015",6.57E-7,mol/L,-6.182,log(mol/L),2050-47-7,328.003,1,0,5.0039000000000025,0,6.576578373554199e-07
c1cc2ccc3cccc4ccc(c1)c2c34,pyrene,-6.19,log(mol/L),-6.19,log(mol/L),129-00-0,202.25599999999997,0,0,4.584000000000002,1,6.45654229034655e-07
c1cc2ccc3cccc4ccc(c1)c2c34,pyrene,-6.19,log(mol/L),-6.19,log(mol/L),-,202.25599999999997,0,0,4.584000000000002,1,6.45654229034655e-07
Nc1cc2c3ccccc3ccc2c2ccccc12,6-aminochrysene,-6.2,log(mol/L),-6.2,log(mol/L),-,243.309,1,1,4.728400000000002,1,6.30957344480193e-07
Nc1cc2c3ccccc3ccc2c2ccccc12,6-aminochrysene,-6.2,log(mol/L),-6.2,log(mol/L),2642-98-0,243.309,1,1,4.728400000000002,1,6.30957344480193e-07
Clc1ccc(-c2ccc(Cl)cc2Cl)cc1,"2,4,4?-pcb",-6.21,log(mol/L),-6.21,log(mol/L),7012-37-5,257.54699999999997,0,0,5.313800000000001,0,6.165950018614822e-07
Clc1ccc(-c2ccc(Cl)cc2Cl)cc1,"2,4,4'-PCB",-6.21,log(mol/L),-6.21,log(mol/L),7012-37-5,257.54699999999997,0,0,5.313800000000001,0,6.165950018614822e-07
N#CC(CCc1ccc(Cl)cc1)(Cn1cncn1)c1ccccc1,-,-0.69897,log(mg/L),-6.226,log(mol/L),114369-43-6,336.826,4,0,4.025880000000003,1,5.942921586155727e-07
N#CC(CCc1ccc(Cl)cc1)(Cn1cncn1)c1ccccc1,Fenbuconazole,0.2,mg/L,-6.226,log(mol/L),114369-43-6,336.826,4,0,4.025880000000003,1,5.942921586155727e-07
COP(=S)(OC)Oc1ccc(Sc2ccc(OP(=S)(OC)OC)cc2)cc1,Abate,-6.237,log(mol/L),-6.237,log(mol/L),-,466.47900000000016,9,0,5.630000000000004,0,5.794286964268809e-07
Clc1ccc(-c2cc(Cl)ccc2Cl)cc1,"2,4',5-PCB",-6.25,log(mol/L),-6.25,log(mol/L),16606-02-3,257.54699999999997,0,0,5.313800000000001,0,5.62341325190349e-07
Clc1ccc(-c2cc(Cl)ccc2Cl)cc1,"2,4',5-PCB",-6.25,log(mol/L),-6.25,log(mol/L),-,257.54699999999997,0,0,5.313800000000001,0,5.62341325190349e-07
Clc1ccc(-c2cc(Cl)ccc2Cl)cc1,"2,4?,5-PCB",-6.25,log(mol/L),-6.25,log(mol/L),-,257.54699999999997,0,0,5.313800000000001,0,5.62341325190349e-07
Clc1ccc(-c2cc(Cl)ccc2Cl)cc1,"2,4?,5-pcb",-6.25,log(mol/L),-6.25,log(mol/L),16606-02-3,257.54699999999997,0,0,5.313800000000001,0,5.62341325190349e-07
Clc1ccc(-c2cccc(Cl)c2Cl)cc1,"2,3,4?-pcb",-6.26,log(mol/L),-6.26,log(mol/L),38444-85-8,257.54699999999997,0,0,5.313800000000001,0,5.495408738576248e-07
Clc1ccc(-c2cccc(Cl)c2Cl)cc1,"2,3,4'-PCB",-6.26,log(mol/L),-6.26,log(mol/L),-,257.54699999999997,0,0,5.313800000000001,0,5.495408738576248e-07
Clc1ccc(-c2cccc(Cl)c2Cl)cc1,"2,3,4'-PCB",-6.26,log(mol/L),-6.26,log(mol/L),38444-85-8,257.54699999999997,0,0,5.313800000000001,0,5.495408738576248e-07
Clc1cc(Cl)c(-c2ccccc2)cc1Cl,"2,4,5-pcb",-6.27,log(mol/L),-6.27,log(mol/L),15862-07-4,257.547,0,0,5.313800000000002,0,5.370317963702533e-07
Clc1ccc(-c2cc(Cl)ccc2Cl)cc1,"2,4,5-pcb",-6.27,log(mol/L),-6.27,log(mol/L),-,257.54699999999997,0,0,5.313800000000001,0,5.370317963702533e-07
Clc1cc(Cl)c(-c2ccccc2)cc1Cl,"2,4,5-pcb",-6.27,log(mol/L),-6.27,log(mol/L),-,257.547,0,0,5.313800000000002,0,5.370317963702533e-07
ClC1=C(Cl)C2(Cl)C3C4OC4C(Cl)C3C1(Cl)C2(Cl)Cl,heptachlor epoxide,-6.29,log(mol/L),-6.29,log(mol/L),1024-57-3,389.32000000000005,1,0,4.452700000000001,1,5.128613839913648e-07
ClC1=C(Cl)C2(Cl)C3C4CC(C5OC45)C3C1(Cl)C2(Cl)Cl,dieldrin,-6.29,log(mol/L),-6.29,log(mol/L),60-57-1,380.913,1,0,4.481400000000002,1,5.128613839913648e-07
Clc1ccc(-c2ccccc2Cl)cc1Cl,"2?,3,4-pcb",-6.29,log(mol/L),-6.29,log(mol/L),38444-86-9,257.547,0,0,5.313800000000001,0,5.128613839913648e-07
CC1(C)C(C=C(Cl)Cl)C1C(=O)OCc1cccc(Oc2ccccc2)c1,permethrin,-6.29,log(mol/L),-6.29,log(mol/L),52645-53-1,391.2940000000001,3,0,6.113300000000004,0,5.128613839913648e-07
Clc1ccc(Cl)c(-c2ccccc2)c1Cl,"2,3,6-pcb",-6.29,log(mol/L),-6.29,log(mol/L),55702-45-9,257.547,0,0,5.313800000000002,0,5.128613839913648e-07
Clc1ccc(Cl)c(-c2ccccc2)c1Cl,"2,3,6-pcb",-6.29,log(mol/L),-6.29,log(mol/L),-,257.547,0,0,5.313800000000002,0,5.128613839913648e-07
ClC1=C(Cl)C2(Cl)C3C4CC(C5OC45)C3C1(Cl)C2(Cl)Cl,endrin,-6.29,log(mol/L),-6.29,log(mol/L),-,380.913,1,0,4.481400000000002,1,5.128613839913648e-07
ClC1=C(Cl)C2(Cl)C3C4OC4C(Cl)C3C1(Cl)C2(Cl)Cl,heptachlor epoxide,-6.29,log(mol/L),-6.29,log(mol/L),-,389.32000000000005,1,0,4.452700000000001,1,5.128613839913648e-07
Clc1ccc(-c2ccccc2Cl)cc1Cl,"2',3,4-PCB",-6.29,log(mol/L),-6.29,log(mol/L),38444-86-9,257.547,0,0,5.313800000000001,0,5.128613839913648e-07
Clc1ccc(-c2ccccc2Cl)cc1Cl,"2?,3,4-PCB",-6.29,log(mol/L),-6.29,log(mol/L),-,257.547,0,0,5.313800000000001,0,5.128613839913648e-07
Clc1ccc(-c2cccc(Cl)c2Cl)cc1,"2',3,4-PCB",-6.29,log(mol/L),-6.29,log(mol/L),-,257.54699999999997,0,0,5.313800000000001,0,5.128613839913648e-07
ClC1=C(Cl)C2(Cl)C3C4CC(C5OC45)C3C1(Cl)C2(Cl)Cl,dieldrin,-6.29,log(mol/L),-6.29,log(mol/L),-,380.913,1,0,4.481400000000002,1,5.128613839913648e-07
CC1(C)C(C=C(Cl)Cl)C1C(=O)OCc1cccc(Oc2ccccc2)c1,permethrin,-6.291,log(mol/L),-6.291,log(mol/L),-,391.2940000000001,3,0,6.113300000000004,0,5.116818355403073e-07
CCCC1(CCc2ccccc2)CC(O)=C(C(CC)c2cccc(NS(=O)(=O)c3ccc(C(F)(F)F)cn3)c2)C(=O)O1,Tipranavir,-6.3,log(mol/L),-6.3,log(mol/L),-,602.6750000000001,6,2,7.325500000000007,0,5.011872336272725e-07
CCCCCCC(=O)OCN1C(=O)NC(c2ccccc2)(c2ccccc2)C1=O,3-Heptanoyloxymethylphenytoin,-6.301,log(mol/L),-6.301,log(mol/L),-,394.4710000000001,4,1,3.9531000000000027,1,5.000345349769783e-07
ClC1=C(Cl)C2(Cl)C3C4C=CC(C4)C3C1(Cl)C2(Cl)Cl,aldrin,-6.307,log(mol/L),-6.307,log(mol/L),-,364.914,0,0,5.270200000000002,0,4.931738039549355e-07
ClC1=C(Cl)C2(Cl)C3C(Cl)C=CC3C1(Cl)C2(Cl)Cl,heptachlor,-6.317,log(mol/L),-6.317,log(mol/L),-,373.321,0,0,5.241500000000001,0,4.819477976251271e-07
ClC1=C(Cl)C2(Cl)C3C(Cl)C=CC3C1(Cl)C2(Cl)Cl,heptachlor,-6.32,log(mol/L),-6.32,log(mol/L),76-44-8,373.321,0,0,5.241500000000001,0,4.78630092322638e-07
ClC1=C(Cl)C2(Cl)C3C(Cl)C=CC3C1(Cl)C2(Cl)Cl,heptachlor,-6.32,log(mol/L),-6.32,log(mol/L),-,373.321,0,0,5.241500000000001,0,4.78630092322638e-07
CCOP(=S)(OCC)SC(CCl)N1C(=O)c2ccccc2C1=O,Dialifor,-6.34,log(mol/L),-6.34,log(mol/L),-,393.85400000000016,6,0,3.878200000000003,1,4.5708818961487516e-07
CCOP(=S)(OCC)SC(CCl)N1C(=O)c2ccccc2C1=O,dialifos,-6.34,log(mol/L),-6.34,log(mol/L),10311-84-9,393.85400000000016,6,0,3.878200000000003,1,4.5708818961487516e-07
c1ccc2cc3ccccc3cc2c1,Anthracene,-6.35,log(mol/L),-6.35,log(mol/L),120-12-7,178.23399999999995,0,0,3.993000000000002,1,4.466835921509635e-07
c1ccc2cc3ccccc3cc2c1,Anthracene,-6.35,log(mol/L),-6.35,log(mol/L),-,178.23399999999995,0,0,3.993000000000002,1,4.466835921509635e-07
CCCCCCCCCCCCCCCO,1-Pentadecanol,-6.35,log(mol/L),-6.35,log(mol/L),-,228.41999999999993,1,1,5.069900000000006,0,4.466835921509635e-07
ClC(Cl)=C(c1ccc(Cl)cc1)c1ccccc1Cl,"o,p?-dde",-6.36,log(mol/L),-6.36,log(mol/L),3424-82-6,318.0300000000001,0,0,6.187900000000003,0,4.365158322401656e-07
ClC(Cl)=C(c1ccc(Cl)cc1)c1ccccc1Cl,"O,P'-DDE",-6.36,log(mol/L),-6.36,log(mol/L),3424-82-6,318.0300000000001,0,0,6.187900000000003,0,4.365158322401656e-07
Clc1ccc(-c2ccccc2)cc1Cl,"3,4-pcb",-6.39,log(mol/L),-6.39,log(mol/L),2974-92-7,223.102,0,0,4.660400000000002,1,4.0738027780411303e-07
Clc1ccc(-c2ccccc2)cc1Cl,"3,4-pcb",-6.39,log(mol/L),-6.39,log(mol/L),-,223.102,0,0,4.660400000000002,1,4.0738027780411303e-07
Brc1ccc(Oc2ccc(Br)cc2)cc1,"4,4'-diBDE",-6.4,log(mol/L),-6.4,log(mol/L),-,328.003,1,0,5.0039000000000025,0,3.981071705534969e-07
Brc1ccc(Oc2ccc(Br)cc2)cc1,"4,4'-Dibromodiphenyl ether; BDE-015",1.3E-4 +- 2.0E-5,g/L,-6.402,log(mol/L),2050-47-7,328.003,1,0,5.0039000000000025,0,3.962780342554393e-07
Clc1ccc(Cl)c(-c2cccc(Cl)c2Cl)c1,"2,2?,3,5?-pcb",-6.47,log(mol/L),-6.47,log(mol/L),41464-39-5,291.992,0,0,5.967200000000002,0,3.3884415613920274e-07
Clc1ccc(Cl)c(-c2cccc(Cl)c2Cl)c1,"2,2',3,5'-PCB",-6.47,log(mol/L),-6.47,log(mol/L),41464-39-5,291.992,0,0,5.967200000000002,0,3.3884415613920274e-07
Clc1ccc(Cl)c(-c2cccc(Cl)c2Cl)c1,"2,2',3,5'-PCB",-6.47,log(mol/L),-6.47,log(mol/L),-,291.992,0,0,5.967200000000002,0,3.3884415613920274e-07
CCCN(CCC)c1c([N+](=O)[O-])cc(C(C)C)cc1[N+](=O)[O-],Isopropalin,-6.49,log(mol/L),-6.49,log(mol/L),-,309.36600000000004,5,0,4.252800000000004,1,3.235936569296281e-07
Cc1cccc(CN2CCN(C(c3ccccc3)c3ccc(Cl)cc3)CC2)c1,meclizine,0.322,?M/L,-6.492,log(mol/L),-,390.9580000000002,2,0,5.555620000000006,0,3.2210687912834346e-07
OCCC(F)(F)C(F)(F)C(F)(F)C(F)(F)C(F)(F)C(F)(F)C(F)(F)C(F)(F)F,-,-0.83,log(mg/L),-6.497,log(mol/L),678-39-7,464.11499999999995,1,1,5.378200000000002,0,3.1841975217261257e-07
Clc1ccc(-c2ccc(Cl)cc2Cl)c(Cl)c1,"2,2?,4,4?-pcb",-6.51,log(mol/L),-6.51,log(mol/L),2437-79-8,291.99199999999996,0,0,5.967200000000001,0,3.090295432513592e-07
Clc1ccc(C(c2ccccc2Cl)C(Cl)Cl)cc1,"O,P'-DDD",-6.51,log(mol/L),-6.51,log(mol/L),-,320.04600000000005,0,0,5.929000000000002,0,3.090295432513592e-07
Clc1ccc(C(c2ccccc2Cl)C(Cl)Cl)cc1,"O,P'-DDD",-6.51,log(mol/L),-6.51,log(mol/L),53-19-0,320.04600000000005,0,0,5.929000000000002,0,3.090295432513592e-07
Clc1ccc(-c2ccc(Cl)cc2Cl)c(Cl)c1,"2,2?,4,4?-PCB",-6.51,log(mol/L),-6.51,log(mol/L),-,291.99199999999996,0,0,5.967200000000001,0,3.090295432513592e-07
Clc1ccc(-c2ccc(Cl)cc2Cl)c(Cl)c1,"2,2',4,4'-pcb",-6.51,log(mol/L),-6.51,log(mol/L),2437-79-8,291.99199999999996,0,0,5.967200000000001,0,3.090295432513592e-07
Clc1ccc(C(c2ccccc2Cl)C(Cl)Cl)cc1,"o,p?-ddd",-6.51,log(mol/L),-6.51,log(mol/L),53-19-0,320.04600000000005,0,0,5.929000000000002,0,3.090295432513592e-07
CCCCCCCC(=O)OCN1C(=O)NC(c2ccccc2)(c2ccccc2)C1=O,3-Octanoyloxymethylphenytoin,-6.523,log(mol/L),-6.523,log(mol/L),-,408.4980000000001,4,1,4.343200000000004,1,2.9991625189876533e-07
Brc1cc(Br)c(OCCOc2c(Br)cc(Br)cc2Br)c(Br)c1,"1,2-Bis(2,4,6-tribromophenoxy)ethane",0.2,mg/L,-6.536,log(mol/L),37853-59-1,687.6400000000001,2,0,7.719400000000003,0,2.910717118066608e-07
Clc1ccc(-c2ccc(Cl)cc2)cc1,"4,4?-pcb",-6.56,log(mol/L),-6.56,log(mol/L),2050-68-2,223.102,0,0,4.660400000000002,1,2.754228703338169e-07
Clc1ccc(-c2ccc(Cl)cc2)cc1,"4,4'-PCB",-6.56,log(mol/L),-6.56,log(mol/L),2050-68-2,223.102,0,0,4.660400000000002,1,2.754228703338169e-07
Clc1ccc(-c2ccc(Cl)cc2)cc1,"4,4'-PCB",-6.56,log(mol/L),-6.56,log(mol/L),-,223.102,0,0,4.660400000000002,1,2.754228703338169e-07
c1ncn([Sn](C2CCCCC2)(C2CCCCC2)C2CCCCC2)n1,Azocyclotin,0.12,mg/L,-6.561,log(mol/L),41083-11-8,436.23200000000037,3,0,6.074600000000006,0,2.747894153102397e-07
c1ncn([Sn](C2CCCCC2)(C2CCCCC2)C2CCCCC2)n1,-,-0.9208187,log(mg/L),-6.561,log(mol/L),41083-11-8,436.23200000000037,3,0,6.074600000000006,0,2.747894153102397e-07
Cc1c2ccccc2c(C)c2ccccc12,"9,10-dimethylanthracene",-6.57,log(mol/L),-6.57,log(mol/L),781-43-1,206.28799999999998,0,0,4.609840000000004,1,2.691534803926914e-07
Cc1c2ccccc2c(C)c2ccccc12,"9,10-dimethylanthracene",-6.57,log(mol/L),-6.57,log(mol/L),-,206.28799999999998,0,0,4.609840000000004,1,2.691534803926914e-07
Clc1ccc(-c2cc(Cl)ccc2Cl)c(Cl)c1,"2,2',4,5'-PCB",-6.57,log(mol/L),-6.57,log(mol/L),-,291.99199999999996,0,0,5.967200000000001,0,2.691534803926914e-07
Cc1cc2c3ccccc3ccc2c2ccccc12,6-Methylchrysene,-6.57,log(mol/L),-6.57,log(mol/L),-,242.321,0,0,5.454620000000004,0,2.691534803926914e-07
Clc1ccc(-c2cc(Cl)ccc2Cl)c(Cl)c1,"2,2?,4,5?-pcb",-6.57,log(mol/L),-6.57,log(mol/L),41464-40-8,291.99199999999996,0,0,5.967200000000001,0,2.691534803926914e-07
Clc1ccc(-c2cc(Cl)ccc2Cl)c(Cl)c1,"2,2?,4,5?-PCB",-6.57,log(mol/L),-6.57,log(mol/L),-,291.99199999999996,0,0,5.967200000000001,0,2.691534803926914e-07
Clc1ccc(-c2cc(Cl)ccc2Cl)c(Cl)c1,"2,2',4,5'-PCB",-6.57,log(mol/L),-6.57,log(mol/L),41464-40-8,291.99199999999996,0,0,5.967200000000001,0,2.691534803926914e-07
CCN(CCO)S(=O)(=O)C(F)(F)C(F)(F)C(F)(F)C(F)(F)C(F)(F)C(F)(F)C(F)(F)C(F)(F)F,-,-0.82,log(mg/L),-6.577,log(mol/L),1691-99-2,571.2490000000001,3,1,4.597300000000002,0,2.648500138606701e-07
Cc1cc2ccccc2c2ccc3ccccc3c12,5-Methylchrysene,-6.59,log(mol/L),-6.59,log(mol/L),-,242.321,0,0,5.454620000000004,0,2.570395782768865e-07
COP(=S)(OC)Oc1cc(Cl)c(I)cc1Cl,iodofenphos,-6.62,log(mol/L),-6.62,log(mol/L),18181-70-9,413.0,4,0,4.494100000000002,1,2.39883291901949e-07
COP(=S)(OC)Oc1cc(Cl)c(I)cc1Cl,iodofenphos,-6.62,log(mol/L),-6.62,log(mol/L),-,413.0,4,0,4.494100000000002,1,2.39883291901949e-07
Clc1ccc(C(c2ccccc2Cl)C(Cl)(Cl)Cl)cc1,"O,P'-DDT",-6.62,log(mol/L),-6.62,log(mol/L),789-02-6,354.491,0,0,6.495500000000002,0,2.39883291901949e-07
Clc1ccc(C(c2ccccc2Cl)C(Cl)(Cl)Cl)cc1,"o,p?-ddt",-6.62,log(mol/L),-6.62,log(mol/L),789-02-6,354.491,0,0,6.495500000000002,0,2.39883291901949e-07
CC(=O)OC1C(=O)C2(C)C(O)CC3OCC3(OC(C)=O)C2C(OC(=O)c2ccccc2)C2(O)CC(OC(=O)C(O)C(NC(=O)c3ccccc3)c3ccccc3)C(C)=C1C2(C)C,Paclitaxel,-6.63,log(mol/L),-6.63,log(mol/L),-,853.9180000000001,14,4,3.735700000000003,0,2.3442288153199228e-07
CC(C)OC(=O)C(O)(c1ccc(Br)cc1)c1ccc(Br)cc1,"ISOPROPYL 4,4'DIBROMOBENZILATE",0.1,mg/L,-6.632,log(mol/L),18181-80-1,428.12000000000006,3,1,4.3991000000000025,1,2.3334580622810046e-07
CC(C)CCCCCOC(=O)c1ccccc1C(=O)OCCCCCC(C)C,diisooctyl phthalate,-6.637,log(mol/L),-6.637,log(mol/L),-,390.5640000000003,4,0,6.433000000000007,0,2.3067471887200713e-07
c1ccc2c(c1)Cc1c-2ccc2ccccc12,benzo(a)fluorene,-6.68,log(mol/L),-6.68,log(mol/L),-,216.283,0,0,4.411000000000003,1,2.0892961308540409e-07
c1ccc2c(c1)Cc1c-2ccc2ccccc12,benzo(a)fluorene,-6.68,log(mol/L),-6.68,log(mol/L),238-84-6,216.283,0,0,4.411000000000003,1,2.0892961308540409e-07
Cc1cc(O)ccc1OP(=O)(Oc1cc(O)ccc1C)Oc1c(C)cccc1O,tricresyl phosphate,-6.7,log(mol/L),-6.7,log(mol/L),1330-78-5,416.36600000000016,7,3,5.373560000000006,0,1.9952623149688787e-07
CC12CCC3C(CCC4CCCCC43C)C1CCC2=O,androstane-17-one,-6.7,log(mol/L),-6.7,log(mol/L),36378-49-1,274.4479999999999,1,0,4.988300000000005,1,1.9952623149688787e-07
Cc1ccccc1OP(=O)(Oc1ccccc1C)Oc1ccccc1C,tricresyl phosphate,-6.7,log(mol/L),-6.7,log(mol/L),1330-78-5,368.36900000000014,4,0,6.256760000000005,0,1.9952623149688787e-07
CCCCCCCC(=O)Oc1c(Br)cc(C#N)cc1Br,BROMOXYNIL OCTANOATE,0.08,mg/L,-6.702,log(mol/L),1689-99-2,403.11400000000003,3,0,5.349180000000004,0,1.9860949173573717e-07
Cc1c(C)c([N+](=O)[O-])c(C(C)(C)C)c([N+](=O)[O-])c1C,FRA058; Musk tibetene,0.052,mg/L,-6.709,log(mol/L),145-39-1,266.29699999999997,4,0,3.725760000000003,1,1.9543394557753964e-07
Brc1ccc(Oc2ccc(Br)cc2Br)c(Br)c1,"2,2',4,4'-Tetrabromodiphenyl ether; BDE-047",1.95E-4,mmol/L,-6.71,log(mol/L),5436-43-1,485.795,1,0,6.528900000000002,0,1.9498445997580455e-07
c1ccc2c(c1)c1ccccc1c1ccccc21,triphenylene,-6.726,log(mol/L),-6.726,log(mol/L),-,228.29399999999998,0,0,5.146200000000003,0,1.8793168168032686e-07
Cc1cccc(Nc2ccccc2C(=O)O)c1C,mefenamic_acid,0.183299,?M/L,-6.737,log(mol/L),-,241.29,2,2,3.7452400000000017,1,1.8323144223712113e-07
c1ccc2c(c1)c1ccccc1c1ccccc21,triphenylene,-6.74,log(mol/L),-6.74,log(mol/L),217-59-4,228.29399999999998,0,0,5.146200000000003,0,1.8197008586099824e-07
c1ccc2c(c1)c1ccccc1c1ccccc21,triphenylene,-6.74,log(mol/L),-6.74,log(mol/L),-,228.29399999999998,0,0,5.146200000000003,0,1.8197008586099824e-07
CN(C)CCC=C1c2ccccc2Sc2ccc(Cl)cc21,chlorprothixene_form_I,0.177964,?M/L,-6.75,log(mol/L),-,315.869,2,0,5.188000000000004,0,1.7782794100389227e-07
Brc1ccc(Oc2ccc(Br)cc2Br)cc1,"2,4,4'-triBDE",-6.76,log(mol/L),-6.76,log(mol/L),-,406.899,1,0,5.766400000000002,0,1.7378008287493765e-07
Brc1ccc(Oc2ccc(Br)cc2Br)cc1,"BDE-028; 2,4,4'-tribromodiphenyl ether",7.0E-5 +- 1.0E-5,g/L,-6.764,log(mol/L),41318-75-6,406.899,1,0,5.766400000000002,0,1.7218685749860061e-07
CCCOc1ccc2c(c1)C(c1ccc(OC)cc1OCC(=O)O)C(C(=O)O)C2c1ccc2c(c1)OCO2,SB209670,-6.77,log(mol/L),-6.77,log(mol/L),-,520.5340000000003,7,2,4.654300000000003,0,1.6982436524617461e-07
CCN(Cc1c(F)cccc1Cl)c1c([N+](=O)[O-])cc(C(F)(F)F)cc1[N+](=O)[O-],Flumetralin,-6.78,log(mol/L),-6.78,log(mol/L),-,421.7340000000001,5,0,5.340800000000003,0,1.6595869074375596e-07
Cc1c([N+](=O)[O-])cc2c(c1[N+](=O)[O-])C(C)(C)CC2(C)C,FRA057; Musk moskene,0.046,mg/L,-6.782,log(mol/L),116-66-5,278.308,4,0,3.7703200000000026,1,1.651961798229015e-07
Clc1ccc(Cl)c(-c2c(Cl)cccc2Cl)c1,"2,2',5,6'-pcb",-6.8,log(mol/L),-6.8,log(mol/L),41464-41-9,291.992,0,0,5.967200000000002,0,1.584893192461114e-07
Clc1ccc(Cl)c(-c2c(Cl)cccc2Cl)c1,"2,2?,5,6?-pcb",-6.8,log(mol/L),-6.8,log(mol/L),41464-41-9,291.992,0,0,5.967200000000002,0,1.584893192461114e-07
ClC1(Cl)C2(Cl)C3(Cl)C4(Cl)C(Cl)(Cl)C5(Cl)C3(Cl)C1(Cl)C5(Cl)C24Cl,Mirex,-6.8,log(mol/L),-6.8,log(mol/L),-,545.5460000000003,0,0,6.222999999999999,0,1.584893192461114e-07
Clc1ccc(Cl)c(-c2c(Cl)cccc2Cl)c1,"2,2?,5,6?-PCB",-6.8,log(mol/L),-6.8,log(mol/L),-,291.992,0,0,5.967200000000002,0,1.584893192461114e-07
CCCCCCCCCCCCCCCC(=O)O,palmitic acid,-6.81,log(mol/L),-6.81,log(mol/L),57-10-3,256.4299999999999,1,1,5.552300000000005,0,1.5488166189124826e-07
ClC1=C(Cl)C2(Cl)C3C(Cl)C(Cl)CC3C1(Cl)C2(Cl)Cl,chlordane,-6.86,log(mol/L),-6.86,log(mol/L),57-74-9,409.78200000000015,0,0,5.682800000000001,0,1.380384264602884e-07
ClC1=C(Cl)C2(Cl)C3C(Cl)C(Cl)CC3C1(Cl)C2(Cl)Cl,chlordane,-6.86,log(mol/L),-6.86,log(mol/L),-,409.78200000000015,0,0,5.682800000000001,0,1.380384264602884e-07
CC(C)C(C(=O)OC(C#N)c1cccc(Oc2ccccc2)c1)c1ccc(OC(F)F)cc1,Flucythrinate,-6.876,log(mol/L),-6.876,log(mol/L),-,451.46900000000005,5,0,6.627980000000005,0,1.33045441797809e-07