SMILES,NAME,Water solubility,UNIT {Water solubility},Solubility_log(mol/L),UNIT {Water solubility}.1,CASRN,MolW(Da),NumHAcceptors,NumHDonors,LogP,Lipinski_rule,Solubility(mol/L)
CC1CO1,"1,2-Propylene oxide",-0.59,log(mol/L),-0.59,log(mol/L),-,58.08,1,0,0.4051,1,0.2570395782768864
O=C1CCCCC1,cyclohexanone,-0.6,log(mol/L),-0.6,log(mol/L),108-94-1,98.14500000000001,1,0,1.5196,1,0.251188643150958
CC(=O)OCC(COC(C)=O)OC(C)=O,glyceryl triacetate,-0.6,log(mol/L),-0.6,log(mol/L),102-76-1,218.20499999999998,6,0,0.044299999999999784,1,0.251188643150958
CC(=O)OCC(COC(C)=O)OC(C)=O,glyceryl triacetate,-0.6,log(mol/L),-0.6,log(mol/L),-,218.20499999999998,6,0,0.044299999999999784,1,0.251188643150958
CCCCCO,1-Pentanol,-0.6,log(mol/L),-0.6,log(mol/L),71-41-0,88.14999999999999,1,1,1.1689,1,0.251188643150958
CCS,ethanethiol,-0.6,log(mol/L),-0.6,log(mol/L),75-08-1,62.137,1,1,0.9360999999999999,1,0.251188643150958
O=C1CCCCC1,cyclohexanone,-0.6,log(mol/L),-0.6,log(mol/L),-,98.14500000000001,1,0,1.5196,1,0.251188643150958
CCS,ethanethiol,-0.6,log(mol/L),-0.6,log(mol/L),-,62.137,1,1,0.9360999999999999,1,0.251188643150958
CCCCCO,1-Pentanol,-0.6,log(mol/L),-0.6,log(mol/L),-,88.14999999999999,1,1,1.1689,1,0.251188643150958
COc1ccccc1OCC(O)CO,Guaifenesin,-0.6,log(mol/L),-0.6,log(mol/L),-,198.21799999999996,4,2,0.4272000000000001,1,0.251188643150958
CC(C)[N+](=O)[O-],2-nitropropane,-0.62,log(mol/L),-0.62,log(mol/L),79-46-9,89.094,2,0,0.6715,1,0.23988329190194904
CC(O)C(C)(C)C,"3,3-dimethyl-2-butanol",-0.62,log(mol/L),-0.62,log(mol/L),464-07-3,102.17699999999999,1,1,1.4133,1,0.23988329190194904
Cc1c(N)c(=O)n(-c2ccccc2)n1C,Ampyrone,-0.62,log(mol/L),-0.62,log(mol/L),83-07-8,203.245,4,1,1.0666200000000003,1,0.23988329190194904
Cc1ccccc1O,o-cresol,-0.62,log(mol/L),-0.62,log(mol/L),95-48-7,108.13999999999999,1,1,1.70062,1,0.23988329190194904
Cc1c(N(C)C)c(=O)n(-c2ccccc2)n1C,Aminopyrine,-0.62,log(mol/L),-0.62,log(mol/L),-,231.29900000000004,4,0,1.55042,1,0.23988329190194904
CC(O)C(C)(C)C,"3,3-dimethyl-2-butanol",-0.62,log(mol/L),-0.62,log(mol/L),-,102.17699999999999,1,1,1.4133,1,0.23988329190194904
CC(C)[N+](=O)[O-],2-nitropropane,-0.62,log(mol/L),-0.62,log(mol/L),-,89.094,2,0,0.6715,1,0.23988329190194904
Cc1ccccc1O,2-Methylphenol,-0.62,log(mol/L),-0.62,log(mol/L),-,108.13999999999999,1,1,1.70062,1,0.23988329190194904
Cc1c(N)c(=O)n(-c2ccccc2)n1C,Ampyrone,-0.624,log(mol/L),-0.624,log(mol/L),-,203.245,4,1,1.0666200000000003,1,0.23768402866248767
CC(C)OC=O,Isopropyl formate,-0.63,log(mol/L),-0.63,log(mol/L),-,88.106,2,0,0.5678,1,0.2344228815319922
Cc1c(N(C)C)c(=O)n(-c2ccccc2)n1C,Aminopyrine,-0.63,log(mol/L),-0.63,log(mol/L),58-15-1,231.29900000000004,4,0,1.55042,1,0.2344228815319922
ClCCl,Dichloromethane,-0.63,log(mol/L),-0.63,log(mol/L),75-09-2,84.93299999999999,0,0,1.4215,1,0.2344228815319922
ClCCl,Dichloromethane,-0.63,log(mol/L),-0.63,log(mol/L),-,84.93299999999999,0,0,1.4215,1,0.2344228815319922
CCCOCC,ethyl propyl ether,-0.66,log(mol/L),-0.66,log(mol/L),-,88.14999999999999,1,0,1.4329,1,0.21877616239495523
CCCOCC,ethyl propyl ether,-0.66,log(mol/L),-0.66,log(mol/L),628-32-0,88.14999999999999,1,0,1.4329,1,0.21877616239495523
CCOC(=O)CC,ethyl propionate,-0.66,log(mol/L),-0.66,log(mol/L),-,102.133,2,0,0.9595,1,0.21877616239495523
CCOC(=O)CC,ethyl propionate,-0.66,log(mol/L),-0.66,log(mol/L),105-37-3,102.133,2,0,0.9595,1,0.21877616239495523
CCCCOC(N)=O,o-butyl carbamate,-0.66,log(mol/L),-0.66,log(mol/L),592-35-8,117.148,2,1,0.8818000000000001,1,0.21877616239495523
NC(=O)c1cnccn1,Pyrazinamide,-0.667,log(mol/L),-0.667,log(mol/L),-,123.11499999999998,3,1,-0.4245000000000001,1,0.21527817347243727
CCC(C)C(C)=O,3-Methyl-2-pentanone,-0.67,log(mol/L),-0.67,log(mol/L),-,100.16099999999999,1,0,1.6215,1,0.2137962089502232
Cc1cccc(O)c1,3-Methylphenol,-0.68,log(mol/L),-0.68,log(mol/L),-,108.13999999999999,1,1,1.7006199999999998,1,0.20892961308540392
O=CNc1ccccc1,formanilide,-0.68,log(mol/L),-0.68,log(mol/L),103-70-8,121.13899999999995,1,1,1.2549,1,0.20892961308540392
Cc1cccc(O)c1,m-cresol,-0.68,log(mol/L),-0.68,log(mol/L),108-39-4,108.13999999999999,1,1,1.7006199999999998,1,0.20892961308540392
CCC(O)C(C)C,2-methyl-3-pentanol,-0.7,log(mol/L),-0.7,log(mol/L),565-67-3,102.17699999999999,1,1,1.4133,1,0.19952623149688797
Oc1cccc(Cl)c1,3-Chlorophenol,-0.7,log(mol/L),-0.7,log(mol/L),-,128.558,1,1,2.0456,1,0.19952623149688797
Cc1ccc(O)cc1,p-cresol,-0.7,log(mol/L),-0.7,log(mol/L),106-44-5,108.13999999999999,1,1,1.7006199999999998,1,0.19952623149688797
Oc1cccc(Cl)c1,3-Chlorophenol,-0.7,log(mol/L),-0.7,log(mol/L),108-43-0,128.558,1,1,2.0456,1,0.19952623149688797
OCCOc1ccccc1,2-phenoxyethanol,-0.7,log(mol/L),-0.7,log(mol/L),-,138.16599999999997,2,1,1.0576999999999999,1,0.19952623149688797
Oc1ccc(Cl)cc1,4-Chlorophenol,-0.7,log(mol/L),-0.7,log(mol/L),-,128.558,1,1,2.0456,1,0.19952623149688797
CCC(O)C(C)C,2-methyl-3-pentanol,-0.7,log(mol/L),-0.7,log(mol/L),-,102.17699999999999,1,1,1.4133,1,0.19952623149688797
Oc1ccc(Cl)cc1,4-Chlorophenol,-0.7,log(mol/L),-0.7,log(mol/L),106-48-9,128.558,1,1,2.0456,1,0.19952623149688797
OCCOc1ccccc1,2-phenoxyethanol,-0.71,log(mol/L),-0.71,log(mol/L),122-99-6,138.16599999999997,2,1,1.0576999999999999,1,0.19498445997580455
S=C1NCCN1,ethylenethiourea,-0.71,log(mol/L),-0.71,log(mol/L),96-45-7,102.162,1,2,-0.5359000000000003,1,0.19498445997580455
CCC(C)CCO,3-methyl-2-pentanol,-0.71,log(mol/L),-0.71,log(mol/L),-,102.17699999999999,1,1,1.4149,1,0.19498445997580455
CCC(C)C(C)O,3-methyl-2-pentanol,-0.72,log(mol/L),-0.72,log(mol/L),565-60-6,102.17699999999998,1,1,1.4133,1,0.19054607179632474
CC(C)(C)C(C)(C)O,"2,3,3-trimethyl-2-butanol",-0.72,log(mol/L),-0.72,log(mol/L),594-83-2,116.20399999999998,1,1,1.8034,1,0.19054607179632474
CC(=O)C(C)(C)C,"3,3-Dimethyl-2-butanone",-0.72,log(mol/L),-0.72,log(mol/L),-,100.16099999999999,1,0,1.6215,1,0.19054607179632474
CCC(C)CCO,3-methyl-2-pentanol,-0.72,log(mol/L),-0.72,log(mol/L),-,102.17699999999999,1,1,1.4149,1,0.19054607179632474
Nc1ccccc1O,2-aminophenol,-0.72,log(mol/L),-0.72,log(mol/L),95-55-6,109.12799999999999,2,2,0.9743999999999999,1,0.19054607179632474
CCCOC(C)=O,Propyl acetate,-0.72,log(mol/L),-0.72,log(mol/L),109-60-4,102.13299999999998,2,0,0.9595,1,0.19054607179632474
Nc1ccccc1O,o-Aminophenol,-0.72,log(mol/L),-0.72,log(mol/L),-,109.12799999999999,2,2,0.9743999999999999,1,0.19054607179632474
CCCOC(C)=O,Propyl acetate,-0.72,log(mol/L),-0.72,log(mol/L),-,102.13299999999998,2,0,0.9595,1,0.19054607179632474
OCCN(CCO)c1ccccc1,n-phenyldiethanolamine,-0.73,log(mol/L),-0.73,log(mol/L),120-07-0,181.235,3,2,0.47759999999999986,1,0.18620871366628675
Cc1ccc(O)cc1,p-cresol,-0.73,log(mol/L),-0.73,log(mol/L),-,108.13999999999999,1,1,1.7006199999999998,1,0.18620871366628675
OCCc1ccccc1,2-phenylethanol,-0.74,log(mol/L),-0.74,log(mol/L),60-12-8,122.16699999999996,1,1,1.2214,1,0.18197008586099836
O=[N+]([O-])c1ccc(O)cc1,4-nitrophenol,-0.74,log(mol/L),-0.74,log(mol/L),100-02-7,139.10999999999999,3,1,1.3003999999999998,1,0.18197008586099836
NC(=O)CC(N)C(=O)O,l-asparagine,-0.74,log(mol/L),-0.74,log(mol/L),70-47-3,132.119,3,3,-1.7263000000000002,1,0.18197008586099836
CC(=O)CC(C)C,4-Methyl-2-pentanone,-0.74,log(mol/L),-0.74,log(mol/L),-,100.16099999999999,1,0,1.6215,1,0.18197008586099836
O=[N+]([O-])c1ccc(O)cc1,p-Nitrophenol,-0.74,log(mol/L),-0.74,log(mol/L),-,139.10999999999999,3,1,1.3003999999999998,1,0.18197008586099836
ONc1ccccc1,phenylhydroxylamine,-0.74,log(mol/L),-0.74,log(mol/L),100-65-2,109.12799999999997,2,2,1.4876999999999998,1,0.18197008586099836
C=CC(=O)OCC,ethyl acrylate,-0.74,log(mol/L),-0.74,log(mol/L),140-88-5,100.11699999999999,2,0,0.7354999999999999,1,0.18197008586099836
OCCc1ccccc1,2-phenylethanol,22200.0,mg/L,-0.7406,log(mol/L),60-12-8,122.16699999999996,1,1,1.2214,1,0.18171885847844096
COC(=O)c1ccccc1OC1OC(COC2OCC(O)C(O)C2O)C(O)C(O)C1O,Monotropitoside,-0.742,log(mol/L),-0.742,log(mol/L),-,446.40500000000003,12,6,-2.884799999999998,0,0.18113400926196024
COC(F)(F)C(Cl)Cl,Methoxyflurane,28300.0,mg/L,-0.7656,log(mol/L),76-38-0,164.966,1,0,2.0293,1,0.1715536647728347
CCOCCOCC,"1,2-diethoxyethane",-0.77,log(mol/L),-0.77,log(mol/L),629-14-1,118.176,2,0,1.0594000000000001,1,0.16982436524617442
CCOCCOCC,"1,2-diethoxyethane",-0.77,log(mol/L),-0.77,log(mol/L),-,118.176,2,0,1.0594000000000001,1,0.16982436524617442
N#CC(OC1OC(COC2OC(CO)C(O)C(O)C2O)C(O)C(O)C1O)c1ccccc1,amygdalin,-0.77,log(mol/L),-0.77,log(mol/L),29883-15-6,457.4320000000001,12,7,-3.108019999999997,0,0.16982436524617442
N#CC(OC1OC(COC2OC(CO)C(O)C(O)C2O)C(O)C(O)C1O)c1ccccc1,Amigdalin,-0.77,log(mol/L),-0.77,log(mol/L),-,457.4320000000001,12,7,-3.108019999999997,0,0.16982436524617442
c1ccc2[nH]nnc2c1,-,4.296665,log(mg/L),-0.7793,log(mol/L),95-14-7,119.127,2,1,0.9578999999999998,1,0.1662264002393129
c1ccc2[nH]nnc2c1,1H-Benzotriazole,19800.0,mg/L,-0.7793,log(mol/L),95-14-7,119.127,2,1,0.9578999999999998,1,0.1662264002393129
c1ccc2[nH]nnc2c1,benzotriazole,-0.78,log(mol/L),-0.78,log(mol/L),95-14-7,119.127,2,1,0.9578999999999998,1,0.16595869074375605
c1ccc2[nH]nnc2c1,benzotriazole,-0.78,log(mol/L),-0.78,log(mol/L),-,119.127,2,1,0.9578999999999998,1,0.16595869074375605
CBr,Bromomethane,-0.79,log(mol/L),-0.79,log(mol/L),-,94.939,0,0,1.0110999999999999,1,0.16218100973589297
Nc1ccc(O)cc1,p-Aminophenol,-0.8,log(mol/L),-0.8,log(mol/L),-,109.12799999999999,2,2,0.9743999999999999,1,0.15848931924611134
CCCC(O)CC,3-hexanol,-0.8,log(mol/L),-0.8,log(mol/L),623-37-0,102.17699999999999,1,1,1.5574,1,0.15848931924611134
CCCC(O)CC,3-hexanol,-0.8,log(mol/L),-0.8,log(mol/L),-,102.17699999999999,1,1,1.5574,1,0.15848931924611134
CCCCC(C)=O,2-Hexanone,-0.8,log(mol/L),-0.8,log(mol/L),591-78-6,100.16099999999999,1,0,1.7656,1,0.15848931924611134
Cn1ccc(=O)[nH]c1=O,1-methyluracil,-0.8,log(mol/L),-0.8,log(mol/L),615-77-0,126.115,3,1,-0.9264000000000001,1,0.15848931924611134
CC(C)CC(C)O,4-methyl-2-pentanol,-0.8,log(mol/L),-0.8,log(mol/L),108-11-2,102.17699999999998,1,1,1.4133,1,0.15848931924611134
CCC[N+](=O)[O-],1-nitropropane,-0.8,log(mol/L),-0.8,log(mol/L),-,89.09399999999998,2,0,0.6731,1,0.15848931924611134
C=C(C)C(=O)OC,methyl methacrylate,-0.8,log(mol/L),-0.8,log(mol/L),80-62-6,100.11699999999998,2,0,0.7355,1,0.15848931924611134
CCC[N+](=O)[O-],1-nitropropane,-0.8,log(mol/L),-0.8,log(mol/L),108-03-2,89.09399999999998,2,0,0.6731,1,0.15848931924611134
CCCCC(C)=O,2-Hexanone,-0.8,log(mol/L),-0.8,log(mol/L),-,100.16099999999999,1,0,1.7656,1,0.15848931924611134
Nc1ccc(O)cc1,4-aminophenol,-0.8,log(mol/L),-0.8,log(mol/L),123-30-8,109.12799999999999,2,2,0.9743999999999999,1,0.15848931924611134
CC(C)(C)COC(N)=O,tert-amyl carbamate,-0.8,log(mol/L),-0.8,log(mol/L),3124-46-7,131.175,2,1,1.1278000000000001,1,0.15848931924611134
CC(C)CC(C)O,4-methyl-2-pentanol,-0.8,log(mol/L),-0.8,log(mol/L),-,102.17699999999998,1,1,1.4133,1,0.15848931924611134
Cn1ccc(=O)[nH]c1=O,1-methyluracil,-0.807,log(mol/L),-0.807,log(mol/L),-,126.115,3,1,-0.9264000000000001,1,0.15595525028269536
CCC(CC)C(=O)O,2-ethylbutyric acid,-0.81,log(mol/L),-0.81,log(mol/L),88-09-5,116.15999999999998,1,1,1.5072,1,0.1548816618912481
CCCC(=O)OC,methyl butyrate,-0.82,log(mol/L),-0.82,log(mol/L),623-42-7,102.13299999999998,2,0,0.9595,1,0.15135612484362082
CCOC(=O)CC(=O)OCC,diethyl malonate,-0.82,log(mol/L),-0.82,log(mol/L),105-53-3,160.16899999999998,4,0,0.5027,1,0.15135612484362082
CCCOC(=O)CC,methyl butyrate,-0.82,log(mol/L),-0.82,log(mol/L),-,116.15999999999998,2,0,1.3496000000000001,1,0.15135612484362082
O=C(O)CCCCC(=O)O,adipic acid,-0.82,log(mol/L),-0.82,log(mol/L),124-04-9,146.14200000000002,2,2,0.716,1,0.15135612484362082
c1ccoc1,furan,-0.82,log(mol/L),-0.82,log(mol/L),110-00-9,68.07499999999999,1,0,1.2795999999999998,1,0.15135612484362082
c1ccoc1,Furane,-0.82,log(mol/L),-0.82,log(mol/L),-,68.07499999999999,1,0,1.2795999999999998,1,0.15135612484362082
CCOC(=O)CC(=O)OCC,Malonic acid diethylester,-0.82,log(mol/L),-0.82,log(mol/L),-,160.16899999999998,4,0,0.5027,1,0.15135612484362082
C=CCSS(=O)CC=C,allicin,-0.83,log(mol/L),-0.83,log(mol/L),-,162.27899999999997,2,0,1.7553,1,0.14791083881682077
O=C1CNC(=O)CN1,"2,5-piperazinedione",-0.83,log(mol/L),-0.83,log(mol/L),106-57-0,114.104,2,2,-1.7675999999999992,1,0.14791083881682077
C=CCSS(=O)CC=C,allicin,-0.83,log(mol/L),-0.83,log(mol/L),539-86-6,162.27899999999997,2,0,1.7553,1,0.14791083881682077
C=CC(=O)CCC,1-hexen-3-one,-0.83,log(mol/L),-0.83,log(mol/L),1629-60-3,98.145,1,0,1.5415999999999999,1,0.14791083881682077
CCCC(=O)CC,3-Hexanone,-0.83,log(mol/L),-0.83,log(mol/L),-,100.16099999999999,1,0,1.7656,1,0.14791083881682077
O=C(O)c1cccnc1,nicotinic acid,-0.84,log(mol/L),-0.84,log(mol/L),59-67-6,123.11099999999998,2,1,0.7797999999999999,1,0.14454397707459277
OCc1ccccc1OC1OC(CO)C(O)C(O)C1O,salicin,-0.85,log(mol/L),-0.85,log(mol/L),138-52-3,286.28,7,5,-1.6424000000000003,1,0.14125375446227545
O=C(O)c1cccnc1,Niacin,-0.85,log(mol/L),-0.85,log(mol/L),-,123.11099999999998,2,1,0.7797999999999999,1,0.14125375446227545
CCC(O)(CC)CC,3-ethyl-3-pentanol,-0.85,log(mol/L),-0.85,log(mol/L),597-49-9,116.204,1,1,1.9475,1,0.14125375446227545
CCC(O)(CC)CC,3-ethyl-3-pentanol,-0.85,log(mol/L),-0.85,log(mol/L),-,116.204,1,1,1.9475,1,0.14125375446227545
Cc1ccccc1N,2-methylaniline,-0.85,log(mol/L),-0.85,log(mol/L),95-53-4,107.156,1,1,1.57722,1,0.14125375446227545
CN(C)C(=O)OC1=CC(=O)CC(C)(C)C1,dimetan,-0.85,log(mol/L),-0.85,log(mol/L),122-15-6,211.26099999999994,3,0,1.9576,1,0.14125375446227545
CCC(C)(O)C(C)C,"2,3-dimethyl-3-pentanol",-0.85,log(mol/L),-0.85,log(mol/L),595-41-5,116.20399999999997,1,1,1.8034,1,0.14125375446227545
OCc1ccccc1OC1OC(CO)C(O)C(O)C1O,salicin,-0.85,log(mol/L),-0.85,log(mol/L),-,286.28,7,5,-1.6424000000000003,1,0.14125375446227545
CCCC1CCCCN1,coniine,-0.85,log(mol/L),-0.85,log(mol/L),-,127.23100000000001,1,1,1.9286,1,0.14125375446227545
CN(C)C(=O)OC1=CC(=O)CC(C)(C)C1,dimetan,-0.85,log(mol/L),-0.85,log(mol/L),-,211.26099999999994,3,0,1.9576,1,0.14125375446227545
CCCCC=O,Valeraldehyde,-0.85,log(mol/L),-0.85,log(mol/L),-,86.13399999999999,1,0,1.3755,1,0.14125375446227545
Cc1cccc(N)c1,m-Methylaniline,-0.85,log(mol/L),-0.85,log(mol/L),-,107.156,1,1,1.5772199999999998,1,0.14125375446227545
C=COCC,ethyl vinyl ether,-0.85,log(mol/L),-0.85,log(mol/L),-,72.107,1,0,1.1664,1,0.14125375446227545
Cc1cccc(N)c1,3-methylaniline,-0.85,log(mol/L),-0.85,log(mol/L),108-44-1,107.156,1,1,1.5772199999999998,1,0.14125375446227545
C=COCC,ethyl vinyl ether,-0.85,log(mol/L),-0.85,log(mol/L),109-92-2,72.107,1,0,1.1664,1,0.14125375446227545
CN(N=O)C(N)=O,1-nitroso-1-methylurea,-0.85,log(mol/L),-0.85,log(mol/L),684-93-5,103.081,3,1,-0.3216999999999998,1,0.14125375446227545
CCCCC=O,pentanal,-0.85,log(mol/L),-0.85,log(mol/L),110-62-3,86.13399999999999,1,0,1.3755,1,0.14125375446227545
CC1COc2c(N3CCN(C)CC3)c(F)cc3c(=O)c(C(=O)O)cn1c23,levofloxacin,>140000.0,?M/L,-0.8539,log(mol/L),-,361.37300000000005,6,1,1.5439999999999998,1,0.13999096265683428
Cc1cnc2cncnc2n1,7-methylpteridine,-0.854,log(mol/L),-0.854,log(mol/L),-,146.153,4,0,0.7282199999999998,1,0.13995873225726183
O=Cc1ccccc1O,salicylaldehyde,-0.86,log(mol/L),-0.86,log(mol/L),90-02-8,122.12299999999996,2,1,1.2047,1,0.1380384264602885
Clc1cnc2cncnc2n1,7-chloropteridine,-0.87,log(mol/L),-0.87,log(mol/L),1125-84-4,166.57099999999997,4,0,1.0731999999999997,1,0.13489628825916536
Clc1cnc2ncncc2n1,7-chloropteridine,-0.87,log(mol/L),-0.87,log(mol/L),-,166.571,4,0,1.0732,1,0.13489628825916536
Cn1c(=O)c2c(ncn2C)n(C)c1=O,Caffeine,-0.876,log(mol/L),-0.876,log(mol/L),-,194.194,6,0,-1.0293,1,0.1330454417978091
Oc1cccc(Br)c1,m-Bromophenol,23000.0,mg/L,-0.8763,log(mol/L),591-20-8,173.00900000000001,1,1,2.1547,1,0.13295356899791097
CCCC(C(C)=O)C(C)=O,"3-propyl-2,4-pentadione",-0.88,log(mol/L),-0.88,log(mol/L),-,142.19799999999998,2,0,1.5807,1,0.1318256738556407
OC1CCCCCC1,Cycloheptanol,-0.88,log(mol/L),-0.88,log(mol/L),-,114.188,1,1,1.7015,1,0.1318256738556407
Cn1c(=O)c2c(ncn2C)n(C)c1=O,Caffeine,-0.88,log(mol/L),-0.88,log(mol/L),-,194.194,6,0,-1.0293,1,0.1318256738556407
CC1CCC(O)CC1,4-methylcyclohexanol,-0.88,log(mol/L),-0.88,log(mol/L),589-91-3,114.18799999999999,1,1,1.5574,1,0.1318256738556407
CCCC(C(C)=O)C(C)=O,"3-propyl-2,4-pentadione",-0.88,log(mol/L),-0.88,log(mol/L),1540-35-8,142.19799999999998,2,0,1.5807,1,0.1318256738556407
O=C([O-])C(F)(F)C(F)F.[Na+],"Propanoic acid, 2,2,3,3-tetrafluoro-, sodium sal",22000.0,mg/L,-0.8829,log(mol/L),22898-01-7,168.02100000000002,2,0,-3.3593,1,0.13094834079858084
O=C(O[Na])C(F)(F)C(F)F,"Propanoic acid, 2,2,3,3-tetrafluoro-, sodium sal",22000.0,mg/L,-0.8829,log(mol/L),22898-01-7,168.021,2,0,0.5134999999999998,1,0.13094834079858084
CCCCC(C)O,2-hexanol,-0.89,log(mol/L),-0.89,log(mol/L),626-93-7,102.17699999999998,1,1,1.5574,1,0.1288249551693134
O=C(O)Cc1ccccc1,phenylacetic acid,-0.89,log(mol/L),-0.89,log(mol/L),103-82-2,136.14999999999998,1,1,1.3137,1,0.1288249551693134
CCC(C)C(C)(C)O,"2,3-dimethyl-2-pentanol",-0.89,log(mol/L),-0.89,log(mol/L),4911-70-0,116.20399999999998,1,1,1.8034,1,0.1288249551693134
ClCBr,bromochloromethane,-0.89,log(mol/L),-0.89,log(mol/L),74-97-5,129.384,0,0,1.5776,1,0.1288249551693134
ClCBr,bromochloromethane,-0.89,log(mol/L),-0.89,log(mol/L),-,129.384,0,0,1.5776,1,0.1288249551693134
CCCCC(C)O,2-hexanol,-0.89,log(mol/L),-0.89,log(mol/L),-,102.17699999999998,1,1,1.5574,1,0.1288249551693134
C,Methane,-0.9,log(mol/L),-0.9,log(mol/L),-,16.043,0,0,0.6361,1,0.12589254117941673
CC(=O)NC(N)=O,1-acetylurea,-0.9,log(mol/L),-0.9,log(mol/L),591-07-1,102.093,2,2,-0.7988,1,0.12589254117941673
OCC1CCC(n2cnc3c(O)ncnc32)O1,Didanosine,-0.9,log(mol/L),-0.9,log(mol/L),-,236.23100000000002,7,2,0.20180000000000003,1,0.12589254117941673
NC(=O)c1cnccn1,2-pyrazinecarboxamide,-0.91,log(mol/L),-0.91,log(mol/L),98-96-4,123.11499999999998,3,1,-0.4245000000000001,1,0.12302687708123815
COc1cnc2cncnc2n1,7-methoxypteridine,-0.91,log(mol/L),-0.91,log(mol/L),204443-27-6,162.152,5,0,0.42839999999999984,1,0.12302687708123815
COc1cnc2cncnc2n1,7-methoxypteridine,-0.91,log(mol/L),-0.91,log(mol/L),-,162.152,5,0,0.42839999999999984,1,0.12302687708123815
NC(=O)c1cnccn1,Pyrazinamide,-0.91,log(mol/L),-0.91,log(mol/L),-,123.11499999999998,3,1,-0.4245000000000001,1,0.12302687708123815
COc1cnc2ncncc2n1,7-methoxypteridine,-0.91,log(mol/L),-0.91,log(mol/L),-,162.15200000000002,5,0,0.42839999999999984,1,0.12302687708123815
CC(O)c1ccccc1,1-phenylethanol,-0.92,log(mol/L),-0.92,log(mol/L),98-85-1,122.16699999999996,1,1,1.7399,1,0.12022644346174129
CC(C)CC(C)(C)O,"2,4-dimethyl-2-pentanol",-0.92,log(mol/L),-0.92,log(mol/L),625-06-9,116.20399999999998,1,1,1.8034,1,0.12022644346174129
CC(C)CC(C)(C)O,"2,4-dimethyl-2-pentanol",-0.92,log(mol/L),-0.92,log(mol/L),-,116.20399999999998,1,1,1.8034,1,0.12022644346174129
CC(O)c1ccccc1,1-phenylethanol,-0.92,log(mol/L),-0.92,log(mol/L),-,122.16699999999996,1,1,1.7399,1,0.12022644346174129
O=C(O)C(CO)c1ccccc1,dl-tropic acid,-0.93,log(mol/L),-0.93,log(mol/L),552-63-6,166.17600000000002,2,2,0.8471,1,0.11748975549395294
CN(C)c1ccc(O)c2c1CC1CC3C(N(C)C)C(O)=C(C(N)=O)C(=O)C3(O)C(O)=C1C2=O,Minocycline,-0.94,log(mol/L),-0.94,log(mol/L),-,457.48300000000023,9,5,0.1866000000000017,1,0.1148153621496883
CC1CCCCC1=O,2-methylcyclohexanone,-0.94,log(mol/L),-0.94,log(mol/L),583-60-8,112.172,1,0,1.7656,1,0.1148153621496883
NC(=O)NCc1ccccc1,benzylurea,-0.95,log(mol/L),-0.95,log(mol/L),538-32-9,150.18099999999998,1,2,0.8548999999999998,1,0.11220184543019636
CC(=O)N(C)c1ccccc1,n-methylacetanilide,-0.95,log(mol/L),-0.95,log(mol/L),579-10-2,149.19299999999998,1,0,1.6693,1,0.11220184543019636
NC(=O)NCc1ccccc1,benzylurea,-0.95,log(mol/L),-0.95,log(mol/L),-,150.18099999999998,1,2,0.8548999999999998,1,0.11220184543019636
O=Cc1ccc(O)cc1,p-hydroxybenzaldehyde,-0.96,log(mol/L),-0.96,log(mol/L),-,122.12299999999996,2,1,1.2047,1,0.1096478196143185
CCN(N=O)C(N)=O,1-nitroso-1-ethylurea,-0.96,log(mol/L),-0.96,log(mol/L),759-73-9,117.10799999999999,3,1,0.06840000000000013,1,0.1096478196143185
CC=CCC#N,3-pentenenitrile,-0.96,log(mol/L),-0.96,log(mol/L),16529-66-1,81.11800000000001,1,0,1.47618,1,0.1096478196143185