SMILES,NAME,Water solubility,UNIT {Water solubility},Solubility_log(mol/L),UNIT {Water solubility}.1,CASRN,MolW(Da),NumHAcceptors,NumHDonors,LogP,Lipinski_rule,Solubility(mol/L)
O=C(Nc1ccccc1)Nc1ccccc1,carbanilide,-3.15,log(mol/L),-3.15,log(mol/L),-,212.25199999999998,1,2,3.3306000000000013,1,0.000707945784384138
O=C(Oc1ccccc1)c1ccccc1O,phenyl salicylate,-3.15,log(mol/L),-3.15,log(mol/L),118-55-8,214.21999999999997,3,1,2.611400000000001,1,0.000707945784384138
Oc1cc(Cl)c(Cl)c(Cl)c1Cl,"2,3,4,5-Tetrachlorophenol",-3.15,log(mol/L),-3.15,log(mol/L),-,231.893,1,1,4.0058,1,0.000707945784384138
O=C(Oc1ccccc1)c1ccccc1O,phenyl salicylate,-3.15,log(mol/L),-3.15,log(mol/L),-,214.21999999999997,3,1,2.611400000000001,1,0.000707945784384138
CCNc1nc(Cl)nc(NC(C)(C)C#N)n1,cyanazine,-3.15,log(mol/L),-3.15,log(mol/L),-,240.698,6,2,1.6708799999999997,1,0.000707945784384138
CCNc1nc(Cl)nc(NC(C)(C)C#N)n1,cyanazine,-3.15,log(mol/L),-3.15,log(mol/L),21725-46-2,240.698,6,2,1.6708799999999997,1,0.000707945784384138
COc1ccc(C2Sc3ccccc3N(CCN(C)C)C(=O)C2OC(C)=O)cc1,Diltiazem,693.647,?M/L,-3.159,log(mol/L),-,414.52700000000016,6,0,3.368500000000002,1,0.0006934258060165695
CC(C)CCOC(=O)c1ccccc1O,isoamyl salicylate,-3.16,log(mol/L),-3.16,log(mol/L),87-20-7,208.257,3,1,2.5951000000000017,1,0.0006918309709189362
COC(=O)c1ccc(O)c(Br)c1,"Benzoic acid, 3-brom-4-hydroxy-, methyl ester",158.0,mg/L,-3.165,log(mol/L),29415-97-2,231.045,3,1,1.9412999999999998,1,0.0006839116472814292
O=C1NC(=O)C2(CCCCCC2)C(=O)N1,Cycloheptyl-5-spirobarbituric acid,-3.168,log(mol/L),-3.168,log(mol/L),-,210.23299999999998,3,2,0.6929999999999998,1,0.0006792036326171843
CCCCCCCC(=O)OC,Methyl octanoate,-3.17,log(mol/L),-3.17,log(mol/L),-,158.24099999999999,2,0,2.5199000000000007,1,0.0006760829753919819
CN(C)C1C(=O)C(C(N)=O)=C(O)C2(O)C(=O)C3=C(O)c4c(O)cccc4C(C)(O)C3C(O)C12,oxytetracycline,-3.17,log(mol/L),-3.17,log(mol/L),-,460.43900000000014,10,7,-1.4001999999999974,0,0.0006760829753919819
CCCCCCCCC=O,nonanal,-3.17,log(mol/L),-3.17,log(mol/L),124-19-6,142.242,1,0,2.935900000000001,1,0.0006760829753919819
CN(C)C(=O)NC1CC2CC1C1CCCC21,Norea,-3.171,log(mol/L),-3.171,log(mol/L),-,222.33199999999994,1,1,2.0822999999999996,1,0.0006745280276979223
CCC(C)C,2-Methylbutane,-3.18,log(mol/L),-3.18,log(mol/L),-,72.151,0,0,2.0524,1,0.0006606934480075957
CCN(CC)CCNC(=O)c1cc(Cl)c(N)cc1OC,Metoclopramide,-3.18,log(mol/L),-3.18,log(mol/L),364-62-5,299.8020000000001,4,2,2.0023999999999997,1,0.0006606934480075957
CCCCC,n-pentane,-3.18,log(mol/L),-3.18,log(mol/L),-,72.151,0,0,2.1965000000000003,1,0.0006606934480075957
CC12C=CC(=O)C=C1CCC1C2C(O)CC2(C)C1CCC2(O)C(=O)CO,Prednisolone,-3.18,log(mol/L),-3.18,log(mol/L),-,360.4500000000002,5,3,1.5575999999999999,1,0.0006606934480075957
CCN(CC)CCNC(=O)c1cc(Cl)c(N)cc1OC,Metoclopramide,-3.18,log(mol/L),-3.18,log(mol/L),-,299.8020000000001,4,2,2.0023999999999997,1,0.0006606934480075957
Sc1nc2ccccc2s1,mercaptobenzothiazole,-3.18,log(mol/L),-3.18,log(mol/L),-,167.25799999999998,3,1,2.585,1,0.0006606934480075957
CCCCC,n-pentane,-3.18,log(mol/L),-3.18,log(mol/L),109-66-0,72.151,0,0,2.1965000000000003,1,0.0006606934480075957
Sc1nc2ccccc2s1,2-mercaptobenzothiazole,-3.18,log(mol/L),-3.18,log(mol/L),149-30-4,167.25799999999998,3,1,2.585,1,0.0006606934480075957
NS(=O)(=O)c1cc2c(cc1Cl)NC(C(Cl)Cl)NS2(=O)=O,trichloromethiazide_form_I,660.645,?M/L,-3.18,log(mol/L),-,380.66200000000003,5,3,0.8210000000000004,1,0.0006606934480075957
S=C=Nc1ccccc1,Phenyl isothiocyanate,0.66,mmol/L,-3.18,log(mol/L),103-72-0,135.19099999999997,2,0,2.4209000000000005,1,0.0006606934480075957
CCCCC,Pentane,-3.18,log(mol/L),-3.18,log(mol/L),-,72.151,0,0,2.1965000000000003,1,0.0006606934480075957
C1=CCCCCC1,Cycloheptene,-3.18,log(mol/L),-3.18,log(mol/L),-,96.173,0,0,2.5067000000000004,1,0.0006606934480075957
CCN1CCN(c2cc3c(cc2F)c(=O)c(C(=O)O)cn3C2CC2)CC1,enrofloxacin,659.005,?M/L,-3.181,log(mol/L),-,359.4010000000001,5,1,2.3156,1,0.0006591738952443213
CC(C)=CCCC(C)=CCO,GERANIOL,100.0,mg/L,-3.188,log(mol/L),106-24-1,154.253,1,1,2.6714000000000016,1,0.0006486344335482381
Cc1ccc(Br)cc1,p-bromotoluene,-3.19,log(mol/L),-3.19,log(mol/L),106-38-7,171.03700000000003,0,0,2.7575200000000013,1,0.0006456542290346556
Clc1ccccc1Br,1-bromo-2-chlorobenzene,-3.19,log(mol/L),-3.19,log(mol/L),-,191.45499999999998,0,0,3.1025,1,0.0006456542290346556
Clc1ccccc1Br,1-bromo-2-chlorobenzene,-3.19,log(mol/L),-3.19,log(mol/L),694-80-4,191.45499999999998,0,0,3.1025,1,0.0006456542290346556
Cc1ccnc2c1NC(=O)c1cccnc1N2C1CC1,Nevirapine,-3.19,log(mol/L),-3.19,log(mol/L),-,266.30400000000003,4,1,2.6512200000000004,1,0.0006456542290346556
O=C(O)c1cc(-c2ccccc2)nc2ccccc12,Cinchophen,-3.19,log(mol/L),-3.19,log(mol/L),-,249.269,2,1,3.6000000000000014,1,0.0006456542290346556
Cc1ccc(Br)cc1,4-Bromotoluene,-3.19,log(mol/L),-3.19,log(mol/L),-,171.03700000000003,0,0,2.7575200000000013,1,0.0006456542290346556
Cc1ccc(Br)cc1,p-bromotoluene,-3.19,log(mol/L),-3.19,log(mol/L),-,171.03700000000003,0,0,2.7575200000000013,1,0.0006456542290346556
Clc1ccccc1Br,o-Chlorobromobenzene,-3.19,log(mol/L),-3.19,log(mol/L),-,191.45499999999998,0,0,3.1025,1,0.0006456542290346556
Cc1ccc(Br)cc1,p-bromotoluene,110.0,mg/L,-3.192,log(mol/L),106-38-7,171.03700000000003,0,0,2.7575200000000013,1,0.0006426877173170194
Cc1cccc(C)c1C,"1,2,3-trimethylbenzene",-3.2,log(mol/L),-3.2,log(mol/L),-,120.195,0,0,2.611860000000001,1,0.000630957344480193
Cc1cccc(C)c1C,"1,2,3-trimethylbenzene",-3.2,log(mol/L),-3.2,log(mol/L),526-73-8,120.195,0,0,2.611860000000001,1,0.000630957344480193
O=[N+]([O-])c1ccc(Cl)c(Cl)c1,"3,4-Dichloronitrobenzene",-3.2,log(mol/L),-3.2,log(mol/L),-,192.00099999999998,2,0,2.901600000000001,1,0.000630957344480193
Cn1cnc([N+](=O)[O-])c1Sc1ncnc2nc[nH]c12,Azathioprine,619.662,?M/L,-3.208,log(mol/L),-,277.269,8,1,1.1457999999999997,1,0.0006194410750767811
CCc1ccccc1C,1-ethyl-2-methylbenzene,-3.21,log(mol/L),-3.21,log(mol/L),611-14-3,120.19499999999996,0,0,2.5574200000000005,1,0.0006165950018614823
CC12C=CC(=O)C=C1CCC1C2C(O)CC2(C)C1CCC2(O)C(=O)CO,Prednisolone,-3.21,log(mol/L),-3.21,log(mol/L),50-24-8,360.4500000000002,5,3,1.5575999999999999,1,0.0006165950018614823
CC1CC=CC=CC=CC=CC(OC2OC(C)C(O)C(N)C2O)CC2OC(O)(CC(O)CC3OC3C=CC(=O)O1)CC(O)C2C(=O)O,natamycin,-3.21,log(mol/L),-3.21,log(mol/L),7681-93-8,665.7330000000004,13,7,0.11970000000000325,0,0.0006165950018614823
Clc1cccc(Br)c1,m-Bromochlorobenzene,118.0,mg/L,-3.21,log(mol/L),108-37-2,191.45499999999998,0,0,3.102500000000001,1,0.0006165950018614823
CCc1ccccc1C,1-ethyl-2-methylbenzene,-3.21,log(mol/L),-3.21,log(mol/L),-,120.19499999999996,0,0,2.5574200000000005,1,0.0006165950018614823
CCc1ccccc1C,2-Ethyltoluene,-3.21,log(mol/L),-3.21,log(mol/L),-,120.19499999999996,0,0,2.5574200000000005,1,0.0006165950018614823
Clc1cccc(Br)c1,1-bromo-3-chlorobenzene,-3.21,log(mol/L),-3.21,log(mol/L),108-37-2,191.45499999999998,0,0,3.102500000000001,1,0.0006165950018614823
Clc1cccc(Br)c1,1-bromo-3-chlorobenzene,-3.21,log(mol/L),-3.21,log(mol/L),-,191.45499999999998,0,0,3.102500000000001,1,0.0006165950018614823
Clc1cccc(Br)c1,m-Chlorobromobenzene,-3.21,log(mol/L),-3.21,log(mol/L),-,191.45499999999998,0,0,3.102500000000001,1,0.0006165950018614823
O=C1NCCN1c1ncc([N+](=O)[O-])s1,niridazole,-3.22,log(mol/L),-3.22,log(mol/L),-,214.20600000000002,5,1,0.5808999999999997,1,0.0006025595860743575
IC=CI,"1,2-diiodoethylene",-3.22,log(mol/L),-3.22,log(mol/L),590-27-2,279.846,0,0,2.3276000000000003,1,0.0006025595860743575
O=C1NCCN1c1ncc([N+](=O)[O-])s1,niridazole,-3.22,log(mol/L),-3.22,log(mol/L),61-57-4,214.20600000000002,5,1,0.5808999999999997,1,0.0006025595860743575
O=C(O)C(c1ccccc1)c1ccccc1,diphenylacetic acid,-3.22,log(mol/L),-3.22,log(mol/L),117-34-0,212.24800000000002,1,1,2.903100000000001,1,0.0006025595860743575
Cc1c([N+](=O)[O-])cc([N+](=O)[O-])cc1[N+](=O)[O-],"2,4,6-Trinitrotoluene",-3.22,log(mol/L),-3.22,log(mol/L),-,227.13199999999998,6,0,1.7196200000000001,1,0.0006025595860743575
CNC(=O)Oc1cccc2ccccc12,carbaryl,-3.224,log(mol/L),-3.224,log(mol/L),-,201.225,2,1,2.5580000000000007,1,0.0005970352865838366
CCCCN1CCCCC1C(=O)Nc1c(C)cccc1C,bupivacaine,596.827,?M/L,-3.224,log(mol/L),-,288.43500000000006,2,1,3.8965400000000026,1,0.0005970352865838366
C=CCCCC,1-hexene,-3.23,log(mol/L),-3.23,log(mol/L),592-41-6,84.16199999999999,0,0,2.3626000000000005,1,0.0005888436553555889
C=CCCCC,1-hexene,-3.23,log(mol/L),-3.23,log(mol/L),-,84.16199999999999,0,0,2.3626000000000005,1,0.0005888436553555889
O=C1CN(N=Cc2ccc([N+](=O)[O-])o2)C(=O)N1,nitrofurantoin,577.432,?M/L,-3.238,log(mol/L),-,238.15899999999996,6,1,0.07349999999999995,1,0.0005780960474057181
CCNc1nc(NC(C)(C)C)nc(OC)n1,Terbumeton,-3.239,log(mol/L),-3.239,log(mol/L),-,225.296,6,2,1.5223999999999998,1,0.0005767664633922509
CC(=O)Nc1cc(NS(=O)(=O)C(F)(F)F)c(C)cc1C,Mefluidide,-3.24,log(mol/L),-3.24,log(mol/L),53780-34-0,310.297,3,2,2.52334,1,0.0005754399373371566
CC(=O)Nc1cc(NS(=O)(=O)C(F)(F)F)c(C)cc1C,Mefluidide,-3.24,log(mol/L),-3.24,log(mol/L),-,310.297,3,2,2.52334,1,0.0005754399373371566
C=CCC(C)C,4-methyl-1-pentene,-3.24,log(mol/L),-3.24,log(mol/L),691-37-2,84.16199999999999,0,0,2.2184999999999997,1,0.0005754399373371566
Nc1ccc(Cl)c(Cl)c1,"3,4-dichloroaniline",-3.24,log(mol/L),-3.24,log(mol/L),95-76-1,162.019,1,1,2.5756000000000006,1,0.0005754399373371566
CC12CCC(=O)C=C1CCC1C2C(O)CC2(C)C(C(=O)CO)CCC12,corticosterone,-3.24,log(mol/L),-3.24,log(mol/L),-,346.46700000000016,4,2,2.6667000000000005,1,0.0005754399373371566
C=CCC(C)C,4-methyl-1-pentene,-3.24,log(mol/L),-3.24,log(mol/L),-,84.16199999999999,0,0,2.2184999999999997,1,0.0005754399373371566
COC1=CC(=O)CC(C)C12Oc1c(Cl)c(OC)cc(OC)c1C2=O,Griseofulvin,-3.246,log(mol/L),-3.246,log(mol/L),-,352.7700000000001,6,0,2.8103000000000007,1,0.0005675446054085471
CCCNC(=O)NS(=O)(=O)c1ccc(Cl)cc1,chlorpropamide,564.456,?M/L,-3.248,log(mol/L),-,276.745,3,2,1.7379,1,0.0005649369748123022
CC(=O)Nc1ccc(I)cc1,4-iodoacetanilide,-3.25,log(mol/L),-3.25,log(mol/L),622-50-4,261.06199999999995,1,1,2.2496,1,0.0005623413251903491
O=Cc1cc(O)cc(Br)c1,5-Bromo-3-hydroxybenzaldehyde,113.0,mg/L,-3.25,log(mol/L),-,201.01899999999998,2,1,1.9671999999999998,1,0.0005623413251903491
CC(=O)C=CC1C(C)=CCCC1(C)C,alpha-ionone,106.0,ppm,-3.259,log(mol/L),127-41-3,192.30199999999994,1,0,3.5141000000000027,1,0.0005508076964054036
CCCCCOC(=O)c1ccc(N)cc1,pentyl-4-aminobenzoate,-3.26,log(mol/L),-3.26,log(mol/L),13110-37-7,207.273,3,1,2.6158,1,0.0005495408738576248
CCc1cccc(CC)c1N(COC)C(=O)CCl,alachlor,-3.26,log(mol/L),-3.26,log(mol/L),-,269.77199999999993,2,0,2.9871000000000016,1,0.0005495408738576248
CCc1cccc(CC)c1N(COC)C(=O)CCl,alachlor,-3.26,log(mol/L),-3.26,log(mol/L),15972-60-8,269.77199999999993,2,0,2.9871000000000016,1,0.0005495408738576248
COC(=O)c1cc(Cl)cc(N)c1Cl,chloramben methyl ester,-3.26,log(mol/L),-3.26,log(mol/L),7286-84-2,220.055,3,1,2.3622,1,0.0005495408738576248
COC(=O)c1cc(Cl)cc(N)c1Cl,chloramben methyl ester,-3.26,log(mol/L),-3.26,log(mol/L),-,220.055,3,1,2.3622,1,0.0005495408738576248
CC(=O)CCC1C(=O)N(c2ccccc2)N(c2ccccc2)C1=O,kebuzone,-3.27,log(mol/L),-3.27,log(mol/L),-,322.3640000000001,3,0,2.966800000000001,1,0.0005370317963702527
CC1=CCCCC1,1-methylcyclohexene,-3.27,log(mol/L),-3.27,log(mol/L),-,96.17300000000002,0,0,2.5067000000000004,1,0.0005370317963702527
CC(C)c1ccccc1,isopropylbenzene,-3.27,log(mol/L),-3.27,log(mol/L),98-82-8,120.19499999999995,0,0,2.8100000000000014,1,0.0005370317963702527
CCCCCNCCOC(=O)c1ccc(N)cc1,naepaine,-3.27,log(mol/L),-3.27,log(mol/L),2188-67-2,250.342,4,2,2.2054,1,0.0005370317963702527
CC1=CCCCC1,1-methylcyclohexene,-3.27,log(mol/L),-3.27,log(mol/L),591-49-1,96.17300000000002,0,0,2.5067000000000004,1,0.0005370317963702527
O=C(O)c1cccc(I)c1,m-iodobenzoic acid,-3.27,log(mol/L),-3.27,log(mol/L),618-51-9,248.01899999999998,1,1,1.9894,1,0.0005370317963702527
Clc1ccc(Cl)cc1,"1,4-dichlorobenzene",-3.27,log(mol/L),-3.27,log(mol/L),-,147.00400000000002,0,0,2.993400000000001,1,0.0005370317963702527
CC(C)c1ccccc1,isopropylbenzene,-3.27,log(mol/L),-3.27,log(mol/L),-,120.19499999999995,0,0,2.8100000000000014,1,0.0005370317963702527
Clc1ccc(Cl)cc1,"1,4-dichlorobenzene",-3.27,log(mol/L),-3.27,log(mol/L),106-46-7,147.00400000000002,0,0,2.993400000000001,1,0.0005370317963702527
CC(=O)CCC1C(=O)N(c2ccccc2)N(c2ccccc2)C1=O,kebuzone,-3.27,log(mol/L),-3.27,log(mol/L),853-34-9,322.3640000000001,3,0,2.966800000000001,1,0.0005370317963702527
CC(C)(c1ccc(O)cc1)c1ccc(O)cc1,diphenylolpropane,120.0,mg/L,-3.279,log(mol/L),80-05-7,228.291,2,2,3.423700000000002,1,0.0005260172663907063
CNC(=O)Oc1cccc2ccccc12,carbaryl,-3.28,log(mol/L),-3.28,log(mol/L),63-25-2,201.225,2,1,2.5580000000000007,1,0.0005248074602497728
CCc1ccccc1CC,"1,2-Diethylbenzene",-3.28,log(mol/L),-3.28,log(mol/L),-,134.22199999999998,0,0,2.811400000000001,1,0.0005248074602497728
COc1ccc(NS(=O)(=O)c2ccc(N)cc2)nn1,sulfamethoxypyridazine,-3.28,log(mol/L),-3.28,log(mol/L),80-35-3,280.30899999999997,6,2,0.8681999999999999,1,0.0005248074602497728
CN1CCC23c4c5ccc(O)c4OC2C(O)C=CC3C1C5,Morphine,-3.28,log(mol/L),-3.28,log(mol/L),57-27-2,285.343,4,2,1.1981,1,0.0005248074602497728
CN1CCC23c4c5ccc(O)c4OC2C(O)C=CC3C1C5,Morphine,-3.28,log(mol/L),-3.28,log(mol/L),-,285.343,4,2,1.1981,1,0.0005248074602497728
CCC1NC(=O)c2cc(S(N)(=O)=O)c(Cl)cc2N1,quinethazone,-3.29,log(mol/L),-3.29,log(mol/L),73-49-4,289.74399999999997,4,3,0.8788000000000005,1,0.0005128613839913648
CCC1NC(=O)c2cc(S(N)(=O)=O)c(Cl)cc2N1,quinethazone,-3.29,log(mol/L),-3.29,log(mol/L),-,289.74399999999997,4,3,0.8788000000000005,1,0.0005128613839913648
NC(=O)N1c2ccccc2C=Cc2ccccc21,carbamazepine,-3.29,log(mol/L),-3.29,log(mol/L),-,236.274,1,1,3.3872000000000018,1,0.0005128613839913648
NCCc1c[nH]c2ccccc12,tryptamine,506.279,?M/L,-3.296,log(mol/L),-,160.21999999999997,1,2,1.6691,1,0.0005058246620031143
CCCCCCCCOC(N)=O,n-octyl carbamate,-3.3,log(mol/L),-3.3,log(mol/L),2029-64-3,173.256,2,1,2.4422,1,0.0005011872336272725
CC1CCCC1,Methylcyclopentane,-3.3,log(mol/L),-3.3,log(mol/L),-,84.162,0,0,2.1965000000000003,1,0.0005011872336272725
CCCCCCCCC(C)=O,2-decanone,-3.3,log(mol/L),-3.3,log(mol/L),-,156.269,1,0,3.3260000000000023,1,0.0005011872336272725
CC1CCCC1,Methylcyclopentane,-3.3,log(mol/L),-3.3,log(mol/L),96-37-7,84.162,0,0,2.1965000000000003,1,0.0005011872336272725
Cc1occc1C(=O)Nc1ccccc1,fenfuram,-3.3,log(mol/L),-3.3,log(mol/L),24691-80-3,201.22500000000002,2,1,2.840320000000001,1,0.0005011872336272725
Cc1occc1C(=O)Nc1ccccc1,fenfuram,-3.3,log(mol/L),-3.3,log(mol/L),-,201.22500000000002,2,1,2.840320000000001,1,0.0005011872336272725
O=Cc1cc(Br)ccc1O,"Benzaldehyde, 5-bromo-2-hydroxy-",100.0,mg/L,-3.303,log(mol/L),1761-61-1,201.019,2,1,1.9671999999999996,1,0.000497737084978936
CCCCC(C#N)(Cn1cncn1)c1ccc(Cl)cc1,-,2.152288,log(mg/L),-3.308,log(mol/L),88671-89-0,288.78200000000004,4,0,3.583280000000002,1,0.0004920395356814511
CCCCC(C#N)(Cn1cncn1)c1ccc(Cl)cc1,MYCLOBUTANIL,142.0,mg/L,-3.308,log(mol/L),88671-89-0,288.78200000000004,4,0,3.583280000000002,1,0.0004920395356814511
FC(F)(Cl)C(Cl)(Cl)Cl,"1,1,1,2-TETRACHLORO-2,2-DIFLUOROETHANE",100.0,mg/L,-3.309,log(mol/L),76-11-9,203.83,0,0,3.1882,1,0.0004909078761526029
Cc1ccc(C)c(C)c1,"1,2,4-trimethylbenzene",-3.31,log(mol/L),-3.31,log(mol/L),-,120.195,0,0,2.611860000000001,1,0.0004897788193684461
O=C(O)c1cc(I)cc(I)c1O,"3,5-diiodosalicylic acid",-3.31,log(mol/L),-3.31,log(mol/L),133-91-5,389.914,2,2,2.2996000000000003,1,0.0004897788193684461
O=C(O)c1ccc(Cl)cc1,p-chlorobenzoic acid,-3.31,log(mol/L),-3.31,log(mol/L),74-11-3,156.56799999999998,1,1,2.0382,1,0.0004897788193684461
CCCCCCCCC(C)=O,2-decanone,-3.31,log(mol/L),-3.31,log(mol/L),693-54-9,156.269,1,0,3.3260000000000023,1,0.0004897788193684461
Cc1ccc(C)c(C)c1,"1,2,4-trimethylbenzene",-3.31,log(mol/L),-3.31,log(mol/L),95-63-6,120.195,0,0,2.611860000000001,1,0.0004897788193684461
CC(C1CC1)C(O)(Cn1cncn1)c1ccc(Cl)cc1,-,2.146128,log(mg/L),-3.319,log(mol/L),94361-06-5,291.78200000000004,4,1,2.865400000000001,1,0.0004797334486366892
CC(C1CC1)C(O)(Cn1cncn1)c1ccc(Cl)cc1,Cyproconazole,140.0,mg/L,-3.319,log(mol/L),94361-06-5,291.78200000000004,4,1,2.865400000000001,1,0.0004797334486366892
COc1cc(OC)n2nc(S(=O)(=O)Nc3c(Cl)ccc(C)c3Cl)nc2n1,Metosulam,200.0,mg/L,-3.32,log(mol/L),139528-85-1,418.2620000000001,8,1,2.5575200000000002,1,0.00047863009232263854
O=C1CC2OCC=C3CN4CCC56c7ccccc7N1C5C2C3CC46,strychnine,-3.32,log(mol/L),-3.32,log(mol/L),57-24-9,334.41900000000004,3,0,2.0925000000000002,1,0.00047863009232263854
CN(C)C(=O)Nc1cccc(C(F)(F)F)c1,Fluorometuron,-3.32,log(mol/L),-3.32,log(mol/L),-,232.20499999999996,1,1,2.7989000000000006,1,0.00047863009232263854
COc1cc(OC)n2nc(S(=O)(=O)Nc3c(Cl)ccc(C)c3Cl)nc2n1,-,2.30103,log(mg/L),-3.32,log(mol/L),139528-85-1,418.2620000000001,8,1,2.5575200000000002,1,0.00047863009232263854
CCN1c2ccccc2N(C)C(=O)c2cccnc21,-,-3.324,log(mol/L),-3.324,log(mol/L),-,253.30499999999995,3,0,2.829600000000001,1,0.00047424198526024484
N#Cc1cc(Br)c(O)c(Br)c1,bromoxynil,130.0,mg/L,-3.328,log(mol/L),1689-84-5,276.91499999999996,2,1,2.78888,1,0.0004698941086052156
N#Cc1cc(Br)c(O)c(Br)c1,bromoxynil,-3.33,log(mol/L),-3.33,log(mol/L),1689-84-5,276.91499999999996,2,1,2.78888,1,0.00046773514128719813
N#Cc1cc(Br)c(O)c(Br)c1,bromoxynil,-3.33,log(mol/L),-3.33,log(mol/L),-,276.91499999999996,2,1,2.78888,1,0.00046773514128719813
CCOP(=S)(OCC)N1C(=O)c2ccccc2C1=O,ditalimfos,-3.35,log(mol/L),-3.35,log(mol/L),5131-24-8,299.28800000000007,5,0,2.5801000000000007,1,0.00044668359215096305
CCOP(=S)(OCC)N1C(=O)c2ccccc2C1=O,ditalimfos,-3.35,log(mol/L),-3.35,log(mol/L),-,299.28800000000007,5,0,2.5801000000000007,1,0.00044668359215096305
CN(C(=O)NC(C)(C)c1ccccc1)c1ccccc1,Methyldymron,-3.35,log(mol/L),-3.35,log(mol/L),-,268.36,1,1,3.767700000000003,1,0.00044668359215096305
CCCCN(CC)C(=O)SCCC,pedulate,-3.35,log(mol/L),-3.35,log(mol/L),1114-71-2,203.35099999999997,2,0,3.3716000000000026,1,0.00044668359215096305
CCCC1COC(Cn2cncn2)(c2ccc(Cl)cc2Cl)O1,Propiconazole,150.0,mg/L,-3.358,log(mol/L),60207-90-1,342.2260000000001,5,0,3.653400000000003,1,0.0004385306977749856
CCCC(C)C1(CC)C(=O)NC(=S)NC1=O,thiopental,-3.36,log(mol/L),-3.36,log(mol/L),-,242.34400000000002,3,2,1.3498999999999999,1,0.0004365158322401661
c1ccc2c(c1)ccc1ncccc12,benzo(f)quinoline,-3.36,log(mol/L),-3.36,log(mol/L),85-02-9,179.22199999999998,1,0,3.388000000000001,1,0.0004365158322401661
CCCC(C)C1(CC)C(=O)NC(=S)NC1=O,thiopental,-3.36,log(mol/L),-3.36,log(mol/L),76-75-5,242.34400000000002,3,2,1.3498999999999999,1,0.0004365158322401661
CCN1c2nc(N(C)CCO)ccc2NC(=O)c2cccnc21,RTI 6,-3.36,log(mol/L),-3.36,log(mol/L),-,313.36100000000005,6,2,1.6287999999999996,1,0.0004365158322401661
CCOC(=O)CC(SP(=S)(OC)OC)C(=O)OCC,malathion,-3.36,log(mol/L),-3.36,log(mol/L),121-75-5,330.3640000000001,8,0,2.1218000000000004,1,0.0004365158322401661
CC1=NS(=O)(=O)c2cc(Cl)ccc2N1,diazoxide,434.438,?M/L,-3.362,log(mol/L),-,230.67600000000002,3,1,1.8726,1,0.00043451022417157143
CN(C)c1nc(N(C)C)nc(N(C)C)n1,Altretamine,-3.364,log(mol/L),-3.364,log(mol/L),-,210.285,6,0,0.0696000000000001,1,0.0004325138310350088
OC(Cn1cncn1)(c1ccc(F)cc1)c1ccccc1F,FLUTRIAFOL (PP450),130.0,mg/L,-3.365,log(mol/L),76674-21-0,301.296,4,1,2.492400000000001,1,0.000431519076827765
OC(Cn1cncn1)(c1ccc(F)cc1)c1ccccc1F,-,2.113943,log(mg/L),-3.365,log(mol/L),76674-21-0,301.296,4,1,2.492400000000001,1,0.000431519076827765
C=CC1CN2CCC1CC2C(O)c1ccnc2ccc(OC)cc12,quinidine,140.0,mg/L,-3.365,log(mol/L),56-54-2,324.4240000000001,4,1,3.1732000000000014,1,0.000431519076827765
OC1(c2ccc(Cl)cc2)CCCCCC1n1cncn1,-,2.09691,log(mg/L),-3.368,log(mol/L),129586-32-9,291.7819999999999,4,1,3.3245000000000013,1,0.00042854852039743966
OC1(c2ccc(Cl)cc2)CCCCCC1n1cncn1,SSF-109 FUNGICIDE,125.0,mg/L,-3.368,log(mol/L),129586-32-9,291.7819999999999,4,1,3.3245000000000013,1,0.00042854852039743966
OC(Cn1cncn1)(c1ccc(F)cc1)c1ccccc1F,flutriafol,-3.37,log(mol/L),-3.37,log(mol/L),-,301.296,4,1,2.492400000000001,1,0.00042657951880159257
CCOC(=O)CC(SP(=S)(OC)OC)C(=O)OCC,malathion,-3.37,log(mol/L),-3.37,log(mol/L),-,330.3640000000001,8,0,2.1218000000000004,1,0.00042657951880159257