SMILES,NAME,Water solubility,UNIT {Water solubility},Solubility_log(mol/L),UNIT {Water solubility}.1,CASRN,MolW(Da),NumHAcceptors,NumHDonors,LogP,Lipinski_rule,Solubility(mol/L)
CC(CCC(=O)O)C1CCC2C3C(O)CC4CC(O)CCC4(C)C3CC(O)C12C,cholic acid,-3.37,log(mol/L),-3.37,log(mol/L),81-25-4,408.5790000000002,4,4,3.4487000000000023,1,0.00042657951880159257
CCCc1ccccc1,Propylbenzene,-3.37,log(mol/L),-3.37,log(mol/L),-,120.19499999999995,0,0,2.639100000000001,1,0.00042657951880159257
CC(c1cc2ccccc2s1)N(O)C(N)=O,Zileuton,-3.37,log(mol/L),-3.37,log(mol/L),-,236.29599999999996,3,2,2.7321999999999997,1,0.00042657951880159257
CCn1cc(C(=O)O)c(=O)c2ccc(C)nc21,nalidixic acid; Uronidix,-3.37,log(mol/L),-3.37,log(mol/L),-,232.23899999999998,4,1,1.4230200000000002,1,0.00042657951880159257
CCOC(=O)CC(SP(=S)(OC)OC)C(=O)OCC,malathion,-3.37,log(mol/L),-3.37,log(mol/L),121-75-5,330.3640000000001,8,0,2.1218000000000004,1,0.00042657951880159257
OC(Cn1cncn1)(c1ccc(F)cc1)c1ccccc1F,flutriafol,-3.37,log(mol/L),-3.37,log(mol/L),76674-21-0,301.296,4,1,2.492400000000001,1,0.00042657951880159257
CCCc1ccccc1,n-Propylbenzene,-3.37,log(mol/L),-3.37,log(mol/L),103-65-1,120.19499999999995,0,0,2.639100000000001,1,0.00042657951880159257
C=CC1CN2CCC1CC2C(O)c1ccnc2ccc(OC)cc12,quinidine,-3.37,log(mol/L),-3.37,log(mol/L),56-54-2,324.4240000000001,4,1,3.1732000000000014,1,0.00042657951880159257
CCn1cc(C(=O)O)c(=O)c2ccc(C)nc21,nalidixic acid,-3.37,log(mol/L),-3.37,log(mol/L),389-08-2,232.23899999999998,4,1,1.4230200000000002,1,0.00042657951880159257
CCCc1ccccc1,n-Propylbenzene,-3.37,log(mol/L),-3.37,log(mol/L),-,120.19499999999995,0,0,2.639100000000001,1,0.00042657951880159257
O=C1CC2OCC=C3CN4CCC56c7ccccc7N1C5C2C3CC46,strychnine,-3.37,log(mol/L),-3.37,log(mol/L),-,334.41900000000004,3,0,2.0925000000000002,1,0.00042657951880159257
Oc1c(Cl)c(Cl)cc(Cl)c1Cl,"2,3,5,6-Tetrachlorophenol",-3.37,log(mol/L),-3.37,log(mol/L),-,231.893,1,1,4.0058,1,0.00042657951880159257
CC1CN(c2c(F)c(N)c3c(=O)c(C(=O)O)cn(C4CC4)c3c2F)CC(C)N1,sparfloxacin,425.472,?M/L,-3.371,log(mol/L),-,392.4060000000002,6,3,2.0816,1,0.0004255984131337431
FC(F)C(F)(F)OCC(Cn1cncn1)c1ccc(Cl)cc1Cl,-,2.193125,log(mg/L),-3.378,log(mol/L),112281-77-3,372.1490000000001,4,0,4.2432000000000025,1,0.00041879356511791827
FC(F)C(F)(F)OCC(Cn1cncn1)c1ccc(Cl)cc1Cl,Tetraconazole,156.0,mg/L,-3.378,log(mol/L),112281-77-3,372.1490000000001,4,0,4.2432000000000025,1,0.00041879356511791827
CC(C)OC(=O)Nc1cccc(Cl)c1,chloropham,-3.38,log(mol/L),-3.38,log(mol/L),101-21-3,213.66400000000002,2,1,3.2969000000000017,1,0.0004168693834703355
CCC(C)c1cc([N+](=O)[O-])cc([N+](=O)[O-])c1O,dinoseb,-3.38,log(mol/L),-3.38,log(mol/L),88-85-7,240.21499999999997,5,1,2.7221000000000015,1,0.0004168693834703355
CCC(C)c1cc([N+](=O)[O-])cc([N+](=O)[O-])c1O,dinoseb,-3.38,log(mol/L),-3.38,log(mol/L),-,240.21499999999997,5,1,2.7221000000000015,1,0.0004168693834703355
CC(C)OC(=O)Nc1cccc(Cl)c1,chloropham,-3.38,log(mol/L),-3.38,log(mol/L),-,213.66400000000002,2,1,3.2969000000000017,1,0.0004168693834703355
O=C1CN(N=Cc2ccc([N+](=O)[O-])o2)C(=O)N1,nitrofurantoin,-3.38,log(mol/L),-3.38,log(mol/L),67-20-9,238.15899999999996,6,1,0.07349999999999995,1,0.0004168693834703355
CCCCCCCCC(=O)OC,Methyl nonanoate,-3.38,log(mol/L),-3.38,log(mol/L),-,172.268,2,0,2.910000000000001,1,0.0004168693834703355
O=C1CN(N=Cc2ccc([N+](=O)[O-])o2)C(=O)N1,nitrofurantoin,-3.38,log(mol/L),-3.38,log(mol/L),-,238.15899999999996,6,1,0.07349999999999995,1,0.0004168693834703355
CCCCCCCC(=O)OC,methyl caprylate,-3.39,log(mol/L),-3.39,log(mol/L),111-11-5,158.24099999999999,2,0,2.5199000000000007,1,0.0004073802778041126
CCCCCCCC(=O)OCC,ethyl caprylate,-3.39,log(mol/L),-3.39,log(mol/L),106-32-1,172.26799999999997,2,0,2.910000000000001,1,0.0004073802778041126
CCCCNC(=O)NS(=O)(=O)c1ccc(C)cc1,tolbutamide,-3.39,log(mol/L),-3.39,log(mol/L),-,270.354,3,2,1.78302,1,0.0004073802778041126
CCCCNC(=O)NS(=O)(=O)c1ccc(C)cc1,tolbutamide,-3.39,log(mol/L),-3.39,log(mol/L),64-77-7,270.354,3,2,1.78302,1,0.0004073802778041126
O=[N+]([O-])c1ccc([N+](=O)[O-])cc1,"1,4-Dinitrobenzene",-3.39,log(mol/L),-3.39,log(mol/L),-,168.108,4,0,1.503,1,0.0004073802778041126
C=C(Cl)CSC(=S)N(CC)CC,sulfallate,-3.39,log(mol/L),-3.39,log(mol/L),95-06-7,223.79399999999998,2,0,3.0988000000000016,1,0.0004073802778041126
C=C(Cl)CSC(=S)N(CC)CC,sulfallate,-3.39,log(mol/L),-3.39,log(mol/L),-,223.79399999999998,2,0,3.0988000000000016,1,0.0004073802778041126
CCCCCCCC(=O)OCC,Ethyl octanoate,-3.39,log(mol/L),-3.39,log(mol/L),-,172.26799999999997,2,0,2.910000000000001,1,0.0004073802778041126
CC(C)(C)C(O)C(Oc1ccc(Cl)cc1)n1cncn1,-,2.079181,log(mg/L),-3.392,log(mol/L),55219-65-3,295.77,5,1,2.916100000000001,1,0.00040550853544838394
CC(C)(C)C(O)C(Oc1ccc(Cl)cc1)n1cncn1,TRIADIMENOL,120.0,mg/L,-3.392,log(mol/L),55219-65-3,295.77,5,1,2.916100000000001,1,0.00040550853544838394
CN(C)CCC=C1c2ccccc2COc2ccccc21,Doxepin,-3.4,log(mol/L),-3.4,log(mol/L),1668-19-5,279.383,2,0,3.9624000000000033,1,0.00039810717055349735
CCSC(=O)N(CC)C1CCCCC1,cycloate,-3.4,log(mol/L),-3.4,log(mol/L),-,215.36199999999994,2,0,3.5141000000000027,1,0.00039810717055349735
Cc1cc(C)cc(C)c1,"1,3,5-trimethylbenzene",-3.4,log(mol/L),-3.4,log(mol/L),-,120.19499999999998,0,0,2.611860000000001,1,0.00039810717055349735
CCSC(=O)N(CC)C1CCCCC1,cycloate,-3.4,log(mol/L),-3.4,log(mol/L),1134-23-2,215.36199999999994,2,0,3.5141000000000027,1,0.00039810717055349735
C=CCCCCCCCCC(=O)O,undecylenic acid,-3.4,log(mol/L),-3.4,log(mol/L),112-38-9,184.279,1,1,3.3778000000000015,1,0.00039810717055349735
Cc1cc(C)cc(C)c1,"1,3,5-trimethylbenzene",-3.4,log(mol/L),-3.4,log(mol/L),108-67-8,120.19499999999998,0,0,2.611860000000001,1,0.00039810717055349735
Nc1nc(O)nc2nc[nH]c12,isoguanine,-3.401,log(mol/L),-3.401,log(mol/L),-,151.129,5,3,-0.3593,1,0.0003971915494694405
CCNP(=S)(OC)OC(C)=CC(=O)OC(C)C,Propetamphos,-3.408,log(mol/L),-3.408,log(mol/L),-,281.314,5,1,2.3388,1,0.0003908408957924021
CCOC1Oc2ccc(OS(C)(=O)=O)cc2C1(C)C,ethofumesate,-3.42,log(mol/L),-3.42,log(mol/L),26225-79-6,286.34900000000005,5,0,2.0576,1,0.00038018939632056124
CCOC1Oc2ccc(OS(C)(=O)=O)cc2C1(C)C,ethofumesate,-3.42,log(mol/L),-3.42,log(mol/L),-,286.34900000000005,5,0,2.0576,1,0.00038018939632056124
COc1ccc2[nH]c(S(=O)Cc3ncc(C)c(OC)c3C)nc2c1,Omeprazole,-3.42,log(mol/L),-3.42,log(mol/L),-,345.4240000000001,5,1,2.8997400000000013,1,0.00038018939632056124
FC(F)(F)C(F)(F)Cl,Chloropentafluoroethane,58.0,mg/L,-3.425,log(mol/L),76-15-3,154.46500000000003,0,0,2.3803,1,0.0003758374042884443
FC(F)(F)C(F)(F)Cl,-,1.76,log(mg/L),-3.429,log(mol/L),76-15-3,154.46500000000003,0,0,2.3803,1,0.0003723917062545687
CC12CCC(=O)C=C1CCC1C3CCC(O)(C(=O)CO)C3(C)CC(O)C12F,fludrocortisone,-3.43,log(mol/L),-3.43,log(mol/L),-,380.45600000000013,5,3,1.8737,1,0.0003715352290971724
CN(C)C(=O)Nc1cccc(C(F)(F)F)c1,fluometuron,-3.43,log(mol/L),-3.43,log(mol/L),-,232.20499999999996,1,1,2.7989000000000006,1,0.0003715352290971724
CC12CCC(=O)C=C1CCC1C3CCC(O)(C(=O)CO)C3(C)CC(O)C12F,fludrocortisone,-3.43,log(mol/L),-3.43,log(mol/L),127-31-1,380.45600000000013,5,3,1.8737,1,0.0003715352290971724
CN(C)C(=O)Nc1cccc(C(F)(F)F)c1,fluometuron,-3.43,log(mol/L),-3.43,log(mol/L),2164-17-2,232.20499999999996,1,1,2.7989000000000006,1,0.0003715352290971724
CCCCCCCCCC(=O)O,caprinic acid,-3.44,log(mol/L),-3.44,log(mol/L),334-48-5,172.268,1,1,3.2117000000000013,1,0.0003630780547701014
Cn1cnc([N+](=O)[O-])c1Sc1ncnc2nc[nH]c12,Azathioprine,-3.44,log(mol/L),-3.44,log(mol/L),-,277.269,8,1,1.1457999999999997,1,0.0003630780547701014
NS(=O)(=O)c1cc(C2(O)NC(=O)c3ccccc32)ccc1Cl,Chlorthalidone,-3.45,log(mol/L),-3.45,log(mol/L),-,338.77200000000005,4,3,0.9242000000000001,1,0.0003548133892335753
CC12CCC(=O)C=C1CCC1C2CCC2(C)C(C(=O)CO)CCC12,deoxycorticosterone,-3.45,log(mol/L),-3.45,log(mol/L),-,330.46800000000013,3,1,3.6959000000000026,1,0.0003548133892335753
CC(CCc1ccccc1)NCC(O)c1ccc(O)c(C(N)=O)c1,Labetalol,-3.45,log(mol/L),-3.45,log(mol/L),-,328.4120000000001,4,4,2.1353999999999997,1,0.0003548133892335753
NS(=O)(=O)c1cc(C2(O)NC(=O)c3ccccc32)ccc1Cl,Chlorthalidone,-3.451,log(mol/L),-3.451,log(mol/L),-,338.77200000000005,4,3,0.9242000000000001,1,0.00035399734108343465
O=C(C=CC=Cc1ccc2c(c1)OCO2)N1CCCCC1,piperine,-3.46,log(mol/L),-3.46,log(mol/L),-,285.343,3,0,2.997200000000001,1,0.0003467368504525317
O=C(C=CC=Cc1ccc2c(c1)OCO2)N1CCCCC1,piperine,-3.46,log(mol/L),-3.46,log(mol/L),94-62-2,285.343,3,0,2.997200000000001,1,0.0003467368504525317
C=CCC1(C(C)CCC)C(=O)NC(=S)NC1=O,thiamylal,-3.46,log(mol/L),-3.46,log(mol/L),-,254.355,3,2,1.5159999999999998,1,0.0003467368504525317
C=CCC1(C(C)CCC)C(=O)NC(=S)NC1=O,thiamylal,-3.46,log(mol/L),-3.46,log(mol/L),77-27-0,254.355,3,2,1.5159999999999998,1,0.0003467368504525317
Cc1ccc(NC(=O)N(C)C)cc1Cl,Chlorotoluron,-3.46,log(mol/L),-3.46,log(mol/L),-,212.68,1,1,2.7419200000000012,1,0.0003467368504525317
Ic1[nH]c(I)c(I)c1I,"2,3,4,5-tetraiodpyrrol",-3.46,log(mol/L),-3.46,log(mol/L),87-58-1,570.6750000000001,0,1,3.4331,0,0.0003467368504525317
CC12CC(=O)C3C(CCC4=CC(=O)CCC43C)C1CCC2=O,adrenosterone,-3.48,log(mol/L),-3.48,log(mol/L),382-45-6,300.3980000000001,3,0,3.2664000000000017,1,0.0003311311214825911
O=[N+]([O-])c1cccc(Cl)c1Cl,"2,3-Dichloronitrobenzene",-3.48,log(mol/L),-3.48,log(mol/L),-,192.00099999999998,2,0,2.901600000000001,1,0.0003311311214825911
Oc1ccc(-c2ccccc2)cc1,p-phenylphenol,-3.48,log(mol/L),-3.48,log(mol/L),92-69-3,170.211,1,1,3.0592000000000015,1,0.0003311311214825911
CCCCOC(=O)c1ccccc1,butyl benzoate,-3.48,log(mol/L),-3.48,log(mol/L),136-60-7,178.231,2,0,2.6435000000000013,1,0.0003311311214825911
CC12CC(=O)C3C(CCC4=CC(=O)CCC43C)C1CCC2=O,adrenosterone,-3.48,log(mol/L),-3.48,log(mol/L),-,300.3980000000001,3,0,3.2664000000000017,1,0.0003311311214825911
Oc1ccc(-c2ccccc2)cc1,p-phenylphenol,-3.48,log(mol/L),-3.48,log(mol/L),-,170.211,1,1,3.0592000000000015,1,0.0003311311214825911
O=C1CN=C(c2ccccn2)c2cc(Br)ccc2N1,Bromazepam,-3.48,log(mol/L),-3.48,log(mol/L),-,316.15799999999996,3,1,2.6336000000000004,1,0.0003311311214825911
Cc1ccc(NC(=O)N(C)C)cc1Cl,Chlortoluron,-3.483,log(mol/L),-3.483,log(mol/L),-,212.68,1,1,2.7419200000000012,1,0.000328851630875983
CCCC1COC(Cn2cncn2)(c2ccc(Cl)cc2Cl)O1,Propiconazole,-3.49,log(mol/L),-3.49,log(mol/L),-,342.2260000000001,5,0,3.653400000000003,1,0.0003235936569296281
NC(Cc1ccc(N(CCCl)CCCl)cc1)C(=O)O,Melphalan,-3.49,log(mol/L),-3.49,log(mol/L),-,305.205,3,2,1.925,1,0.0003235936569296281
CCCC1COC(Cn2cncn2)(c2ccc(Cl)cc2Cl)O1,Propiconazole,-3.493,log(mol/L),-3.493,log(mol/L),-,342.2260000000001,5,0,3.653400000000003,1,0.00032136605386403185
CC(C)(C)C(O)C(Oc1ccc(Cl)cc1)n1cncn1,TRIADIMENOL,95.0,mg/L,-3.493,log(mol/L),55219-65-3,295.77,5,1,2.916100000000001,1,0.00032136605386403185
CCCC1COC(Cn2cncn2)(c2ccc(Cl)cc2Cl)O1,Propiconazole,110.0,mg/L,-3.493,log(mol/L),60207-90-1,342.2260000000001,5,0,3.653400000000003,1,0.00032136605386403185
CCCC1COC(Cn2cncn2)(c2ccc(Cl)cc2Cl)O1,-,2.041393,log(mg/L),-3.493,log(mol/L),60207-90-1,342.2260000000001,5,0,3.653400000000003,1,0.00032136605386403185
CC(C)NCC(O)COc1cccc2ccccc12,Propranolol,320.772,?M/L,-3.494,log(mol/L),-,259.34900000000005,3,2,2.5775000000000006,1,0.0003206269324505464
O=C1CN=C(c2ccccc2Cl)c2cc([N+](=O)[O-])ccc2N1,Clonazepam,-3.499,log(mol/L),-3.499,log(mol/L),-,315.716,4,1,3.037700000000001,1,0.000316956746304349
Brc1ccccc1Br,"1,2-dibromobenzene",-3.5,log(mol/L),-3.5,log(mol/L),583-53-9,235.90599999999998,0,0,3.2116000000000007,1,0.00031622776601683794
O=C1CN=C(c2ccccc2Cl)c2cc([N+](=O)[O-])ccc2N1,Clonazepam,-3.5,log(mol/L),-3.5,log(mol/L),-,315.716,4,1,3.037700000000001,1,0.00031622776601683794
Brc1ccccc1Br,"1,2-dibromobenzene",-3.5,log(mol/L),-3.5,log(mol/L),-,235.90599999999998,0,0,3.2116000000000007,1,0.00031622776601683794
Brc1ccccc1Br,o-Dibromobenzene,74.6,mg/L,-3.5,log(mol/L),583-53-9,235.90599999999998,0,0,3.2116000000000007,1,0.00031622776601683794
c1ccc(Nc2ccccc2)cc1,diphenylamine,-3.504,log(mol/L),-3.504,log(mol/L),-,169.227,1,1,3.430200000000001,1,0.00031332857243155857
C1CCCCCC1,cycloheptane,-3.51,log(mol/L),-3.51,log(mol/L),-,98.18900000000001,0,0,2.7307000000000015,1,0.0003090295432513592
c1ccc(Nc2ccccc2)cc1,diphenylamine,-3.51,log(mol/L),-3.51,log(mol/L),122-39-4,169.227,1,1,3.430200000000001,1,0.0003090295432513592
Nc1ccc(S(=O)(=O)Nc2ncccn2)cc1,sulfadiazine,-3.51,log(mol/L),-3.51,log(mol/L),68-35-9,250.28300000000004,5,2,0.8596000000000001,1,0.0003090295432513592
CON(C)C(=O)Nc1ccc(Cl)c(Cl)c1,linuron,-3.52,log(mol/L),-3.52,log(mol/L),330-55-2,249.09699999999998,2,1,3.0185000000000013,1,0.0003019951720402016
Cc1cccc(Br)c1,m-bromotoluene,-3.52,log(mol/L),-3.52,log(mol/L),-,171.037,0,0,2.7575200000000013,1,0.0003019951720402016
C1CCCCCC1,cycloheptane,-3.52,log(mol/L),-3.52,log(mol/L),291-64-5,98.18900000000001,0,0,2.7307000000000015,1,0.0003019951720402016
C1CCCCCC1,cycloheptane,-3.52,log(mol/L),-3.52,log(mol/L),-,98.18900000000001,0,0,2.7307000000000015,1,0.0003019951720402016
Cc1ccccc1Cl,o-chlorotoluene,-3.52,log(mol/L),-3.52,log(mol/L),95-49-8,126.586,0,0,2.6484200000000007,1,0.0003019951720402016
Cc1ccccc1Cl,2-Chlorotoluene,-3.52,log(mol/L),-3.52,log(mol/L),-,126.586,0,0,2.6484200000000007,1,0.0003019951720402016
Cc1cccc(Br)c1,m-bromotoluene,-3.52,log(mol/L),-3.52,log(mol/L),591-17-3,171.037,0,0,2.7575200000000013,1,0.0003019951720402016
Cc1cccc(Br)c1,m-bromotoluene,51.3,mg/L,-3.523,log(mol/L),591-17-3,171.037,0,0,2.7575200000000013,1,0.000299916251898765
O=C(O)c1ccc(Br)cc1,P-BROMOBENZOIC ACID,60.0,mg/L,-3.525,log(mol/L),586-76-5,201.019,1,1,2.1473000000000004,1,0.000298538261891796
NS(=O)(=O)c1cc2c(cc1Cl)NC(C(Cl)Cl)NS2(=O)=O,trichloromethiazide_form_II,295.843,?M/L,-3.529,log(mol/L),-,380.66200000000003,5,3,0.8210000000000004,1,0.00029580124665515463
CCCCN(CC)C(=O)SCCC,Pebulate,-3.53,log(mol/L),-3.53,log(mol/L),-,203.35099999999997,2,0,3.3716000000000026,1,0.0002951209226666387
O=C1c2ccccc2Cc2ccccc2N1CCF,RTI 7,-3.535,log(mol/L),-3.535,log(mol/L),-,255.29199999999997,1,0,3.2071000000000014,1,0.0002917427014001166
CC(C)c1ccc(NC(=O)N(C)C)cc1,isoproturon,-3.536,log(mol/L),-3.536,log(mol/L),-,206.289,1,1,2.903500000000001,1,0.0002910717118066605
CCCC1C(=O)N2C(N(C)C)=Nc3ccc(C)cc3N2C1=O,Apazone,-3.538,log(mol/L),-3.538,log(mol/L),-,300.3620000000001,4,0,2.0642199999999997,1,0.0002897343587701324
O=[N+]([O-])c1cccc2ccccc12,1-nitronaphthalene,-3.54,log(mol/L),-3.54,log(mol/L),86-57-7,173.171,2,0,2.748000000000001,1,0.00028840315031266055
O=[N+]([O-])c1cccc2ccccc12,1-Nitronapthalene,-3.54,log(mol/L),-3.54,log(mol/L),-,173.171,2,0,2.748000000000001,1,0.00028840315031266055
CCCC1C(=O)N2C(N(C)C)=Nc3ccc(C)cc3N2C1=O,Apazone,-3.54,log(mol/L),-3.54,log(mol/L),-,300.3620000000001,4,0,2.0642199999999997,1,0.00028840315031266055
Brc1cccc(Br)c1,"1,3-dibromobenzene",-3.54,log(mol/L),-3.54,log(mol/L),108-36-1,235.90599999999998,0,0,3.2116000000000007,1,0.00028840315031266055
CC(C)c1ccc(NC(=O)N(C)C)cc1,isoproturon,-3.54,log(mol/L),-3.54,log(mol/L),34123-59-6,206.289,1,1,2.903500000000001,1,0.00028840315031266055
Brc1cccc(Br)c1,"1,3-dibromobenzene",-3.54,log(mol/L),-3.54,log(mol/L),-,235.90599999999998,0,0,3.2116000000000007,1,0.00028840315031266055
Nc1ccc(S(=O)(=O)Nc2ncccn2)cc1,sulfadiazine,-3.54,log(mol/L),-3.54,log(mol/L),-,250.28300000000004,5,2,0.8596000000000001,1,0.00028840315031266055
Clc1ccccc1I,o-Chloroiodobenzene,-3.54,log(mol/L),-3.54,log(mol/L),-,238.45499999999998,0,0,2.9446000000000003,1,0.00028840315031266055
Brc1cccc(Br)c1,m-Dibromobenzene,67.5,mg/L,-3.543,log(mol/L),108-36-1,235.90599999999998,0,0,3.2116000000000007,1,0.000286417796990658
O=C1CN(N=Cc2ccc([N+](=O)[O-])o2)C(=O)N1,nitrofurantoin,-3.55,log(mol/L),-3.55,log(mol/L),-,238.15899999999996,6,1,0.07349999999999995,1,0.0002818382931264455
CCNc1nc(Cl)nc(NC(C)C)n1,atrazine,-3.55,log(mol/L),-3.55,log(mol/L),1912-24-9,215.68800000000002,5,2,1.7770999999999997,1,0.0002818382931264455
CCC(C)(C)C,"2,2-Dimethylbutane",-3.55,log(mol/L),-3.55,log(mol/L),75-83-2,86.17799999999998,0,0,2.442500000000001,1,0.0002818382931264455
CCCCCCCCCCC(=O)O,undedecanoic acid,-3.55,log(mol/L),-3.55,log(mol/L),112-37-8,186.295,1,1,3.6018000000000017,1,0.0002818382931264455
Clc1cccc(I)c1,m-Chloroiodobenzene,-3.55,log(mol/L),-3.55,log(mol/L),-,238.45499999999998,0,0,2.9446000000000003,1,0.0002818382931264455
CCC(C)(C)C,"2,2-Dimethylbutane",-3.55,log(mol/L),-3.55,log(mol/L),-,86.17799999999998,0,0,2.442500000000001,1,0.0002818382931264455
Nc1cc([N+](=O)[O-])ccc1Br,"Benzenamine, 2-bromo-5-nitro-",60.0,mg/L,-3.558,log(mol/L),10403-47-1,217.022,3,1,1.9395,1,0.0002766941645411513
CCCCNc1cc(C(=O)O)cc(S(N)(=O)=O)c1Oc1ccccc1,Bumetanide,-3.56,log(mol/L),-3.56,log(mol/L),-,364.42300000000006,5,3,3.036500000000001,1,0.0002754228703338166
CCN(CC)c1c([N+](=O)[O-])cc(C(F)(F)F)c(N)c1[N+](=O)[O-],Nitramine,-3.561,log(mol/L),-3.561,log(mol/L),-,322.24300000000005,6,1,2.9502000000000006,1,0.0002747894153102397
CCN(CC)CCNC(=O)c1cc(Cl)c(N)cc1OC,Metoclopramide,271.981,?M/L,-3.565,log(mol/L),-,299.8020000000001,4,2,2.0023999999999997,1,0.00027227013080779127
CCN(CC)C(=O)C(C)Oc1cccc2ccccc12,napropamide,-3.57,log(mol/L),-3.57,log(mol/L),15299-99-7,271.36,2,0,3.475500000000002,1,0.00026915348039269167
CCN(CC)C(=O)C(C)Oc1cccc2ccccc12,napropamide,-3.57,log(mol/L),-3.57,log(mol/L),-,271.36,2,0,3.475500000000002,1,0.00026915348039269167
COc1cc(C2c3cc4c(cc3C(OC3OC5COC(C)OC5C(O)C3O)C3COC(=O)C23)OCO4)cc(OC)c1O,"Etoposide (148-167,25mg/ml)",-3.571,log(mol/L),-3.571,log(mol/L),-,588.5620000000004,13,3,1.3385999999999993,0,0.0002685344445658506
Nc1nc2[nH]cnc2c(=O)[nH]1,Guanine,-3.583,log(mol/L),-3.583,log(mol/L),-,151.129,4,3,-0.7716000000000003,1,0.0002612161354399205
CC1Cc2ccccc2N1NC(=O)c1ccc(Cl)c(S(N)(=O)=O)c1,Indapamide,-3.586,log(mol/L),-3.586,log(mol/L),-,365.84200000000004,4,2,2.0834,1,0.0002594179362118815
Clc1ccc(Cl)c(Cl)c1,"1,2,4-trichlorobenzene",-3.59,log(mol/L),-3.59,log(mol/L),120-82-1,181.449,0,0,3.6468000000000007,1,0.0002570395782768865
CC12CC(O)C3C(CCC4CC(O)CCC43C)C1CCC2=O,hydroxyisoandrosterone,-3.59,log(mol/L),-3.59,log(mol/L),514-17-0,306.4460000000001,3,2,2.9299000000000017,1,0.0002570395782768865
Clc1ccc(Cl)c(Cl)c1,"1,2,4-trichlorobenzene",-3.59,log(mol/L),-3.59,log(mol/L),-,181.449,0,0,3.6468000000000007,1,0.0002570395782768865
CCCC(Cn1cncn1)c1ccc(Cl)cc1Cl,Penconazole,73.0,mg/L,-3.59,log(mol/L),66246-88-6,284.19,3,0,4.168800000000003,1,0.0002570395782768865
CC(=O)N(c1onc(C)c1C)S(=O)(=O)c1ccc(N)cc1,acetyl sulfisoxazole,-3.59,log(mol/L),-3.59,log(mol/L),80-74-0,309.34700000000004,6,1,1.6154400000000002,1,0.0002570395782768865
NS(=O)(=O)c1cc2c(cc1C(F)(F)F)NC(Cc1ccccc1)NS2(=O)=O,bendroflumethiazide,-3.59,log(mol/L),-3.59,log(mol/L),73-48-3,421.4220000000001,5,3,1.6254000000000004,1,0.0002570395782768865
CC1Cc2ccccc2N1NC(=O)c1ccc(Cl)c(S(N)(=O)=O)c1,Indapamide,-3.59,log(mol/L),-3.59,log(mol/L),-,365.84200000000004,4,2,2.0834,1,0.0002570395782768865
O=C(Nc1ccccc1)c1ccccc1O,salicylanilide,-3.59,log(mol/L),-3.59,log(mol/L),87-17-2,213.236,2,2,2.644500000000001,1,0.0002570395782768865
O=C(Nc1ccccc1)c1ccccc1O,salicylanilide,-3.59,log(mol/L),-3.59,log(mol/L),-,213.236,2,2,2.644500000000001,1,0.0002570395782768865
NS(=O)(=O)c1cc2c(cc1C(F)(F)F)NC(Cc1ccccc1)NS2(=O)=O,bendroflumethiazide,-3.59,log(mol/L),-3.59,log(mol/L),-,421.4220000000001,5,3,1.6254000000000004,1,0.0002570395782768865
CCCC(Cn1cncn1)c1ccc(Cl)cc1Cl,-,1.863323,log(mg/L),-3.59,log(mol/L),66246-88-6,284.19,3,0,4.168800000000003,1,0.0002570395782768865
CC(=O)N(c1onc(C)c1C)S(=O)c1ccc(N)cc1,acetyl sulfisoxazole,-3.59,log(mol/L),-3.59,log(mol/L),-,293.348,5,1,1.9493399999999999,1,0.0002570395782768865
CC1CC2C3CCC4=CC(=O)C=CC4(C)C3(F)C(O)CC2(C)C1(O)C(=O)CO,Dexamethasone,-3.59,log(mol/L),-3.59,log(mol/L),-,392.4670000000002,5,3,1.8957000000000002,1,0.0002570395782768865
CON(C)C(=O)Nc1ccc(Cl)c(Cl)c1,linuron,-3.592,log(mol/L),-3.592,log(mol/L),-,249.09699999999998,2,1,3.0185000000000013,1,0.00025585858869056453
CC(C)Cc1ccc(C(C)C(=O)O)cc1,Ibuprofen,254.455,?M/L,-3.594,log(mol/L),-,206.28499999999997,1,1,3.073200000000001,1,0.0002546830252585042