SMILES,NAME,Water solubility,UNIT {Water solubility},Solubility_log(mol/L),UNIT {Water solubility}.1,CASRN
ClC1=C(C(=C(C(=C1Cl)OC)O)Cl)Cl,tetrachloroguaiacol,-4.02,log(mol/L),-4.02,log(mol/L),-
OC1=C(Cl)C(Cl)=C(Cl)C(Cl)=C1OC,tetrachloroguaiacol,-4.02,log(mol/L),-4.02,log(mol/L),2539-17-5
ClC1=CC=C(I)C=C1,p-Chloroiodobenzene,-4.03,log(mol/L),-4.03,log(mol/L),-
O=C1C(Cl)=C(NC)C=NN1C2=CC(C(F)(F)F)=CC=C2,norflurazon,-4.04,log(mol/L),-4.04,log(mol/L),27314-13-2
COP(=S)(OC)OC1=CC=C(N(=O)=O)C(C)=C1,fenitrothion,-4.04,log(mol/L),-4.04,log(mol/L),-
S=P(OC)(OC)OC1=CC(C)=C(N(=O)=O)C=C1,fenitrothion,-4.04,log(mol/L),-4.04,log(mol/L),122-14-5
CNC=1C=NN(C2=CC=CC(=C2)C(F)(F)F)C(=O)C1Cl,norflurazon,-4.046,log(mol/L),-4.046,log(mol/L),-
FC(F)(F)C1=CC=CC(=C1)N2CC(CCl)C(Cl)C2=O,Flurochloridone,-4.047,log(mol/L),-4.047,log(mol/L),-
C1C(=O)C=C2CCC3C4CCC(O)C4(C)CCC3C2(C)C1,Testosterone,-4.05,log(mol/L),-4.05,log(mol/L),-
C1=NC=NN1C(C(O)C(C)(C)C)CC2=CC=C(Cl)C=C2,Paclobutrazol,26.0,mg/L,-4.053,log(mol/L),76738-62-0
BrC1=CC=2C(CN(C)C)=CNC2C=C1,bromogramine,88.0647,?M/L,-4.055,log(mol/L),-
CCNC1=NC(N(CC)CC)=NC(Cl)=N1,trietazine,-4.06,log(mol/L),-4.06,log(mol/L),1912-26-1
CCCCC1=CC=CC=C1,Butylbenzene,-4.06,log(mol/L),-4.06,log(mol/L),-
CCCCC1=CC=CC=C1,n-butylbenzene,-4.06,log(mol/L),-4.06,log(mol/L),104-51-8
CCNC1=NC(Cl)=NC(=N1)N(CC)CC,trietazine,-4.06,log(mol/L),-4.06,log(mol/L),-
C1(=CC=CC=C1)CCCC,n-butylbenzene,-4.06,log(mol/L),-4.06,log(mol/L),-
BrC1=CC=C(Br)C=C1,"1,4-dibromobenzene",-4.07,log(mol/L),-4.07,log(mol/L),106-37-6
BrC1=CC=C(Br)C=C1,"1,4-dibromobenzene",-4.07,log(mol/L),-4.07,log(mol/L),-
BrC1=CC=C(C=C1)Br,"1,4-dibromobenzene",-4.07,log(mol/L),-4.07,log(mol/L),-
CC12C(CCC3C1CCC4(C)C3CCC4O)=CC(CC2)=O,Testosterone,-4.07,log(mol/L),-4.07,log(mol/L),58-22-0
CCC(=C(CC)C1=CC=C(O)C=C1)C2=CC=C(O)C=C2,Diethylstilbestrol,-4.07,log(mol/L),-4.07,log(mol/L),-
C1(=CC=C(Br)C=C1)Br,"1,4-dibromobenzene",20.0,mg/L,-4.072,log(mol/L),106-37-6
C(C1=CC=CC=C1)C2=CC=CC=C2,diphenylmethane,-4.08,log(mol/L),-4.08,log(mol/L),-
OC(=O)C1=CC=CC=C1NC2=C(C)C(C)=CC=C2,mefenamic acid,-4.08,log(mol/L),-4.08,log(mol/L),-
O=C(SCC(Cl)=CCl)N(C(C)C)C(C)C,diallate,-4.08,log(mol/L),-4.08,log(mol/L),2303-16-4
ClC1=CC=2C(C3=CC=CC=C3Cl)=NCC4=NN=C(C)N4C2C=C1,Triazolam,-4.08,log(mol/L),-4.08,log(mol/L),28911-01-5
CC1OC(CC(O)C1O)OC2C(O)CC(OC2C)OC3C(O)CC(OC4CCC5(C)C(CCC6C5CC(O)C7(C)C(CCC67O)C8=CC(=O)OC8)C4)OC3C,"Digoxin (L1=41,8mg/mL, L2=68,2mg/mL, Z=40,1mg/mL)",-4.081,log(mol/L),-4.081,log(mol/L),-
C1=C(Br)C=C(N=C=S)C=C1,"BENZENE, 1-BROMO-3-ISOTHIOCYANATO-",17.6,mg/L,-4.085,log(mol/L),2131-59-1
ClC1=CC2=C(N3C(=NN=C3C)CN=C2C=4C(Cl)=CC=CC4)C=C1,Triazolam,-4.09,log(mol/L),-4.09,log(mol/L),-
C1=CC=2N3C(C)=NN=C3CN=C(C4=C(Cl)C=CC=C4)C2C=C1Cl,Triazolam,-4.09,log(mol/L),-4.09,log(mol/L),-
CC12C(CCC3C1CCC4(C)C3CCC4O)=CC(CC2)=O,Testosterone,-4.09,log(mol/L),-4.09,log(mol/L),58-22-0
CC1=CC=C(C=C1)C(=O)C2=CC=C(CC(=O)O)N2C,tolmetin,80.9303,?M/L,-4.092,log(mol/L),-
O=C1NC(=O)C(N1)(C2=CC=CC=C2)C3=CC=CC=C3,Phenytoin,-4.097,log(mol/L),-4.097,log(mol/L),-
CC1CC2C3CCC(O)(C(=O)C)C3(C)CC(O)C2(F)C4(C)C=CC(=O)C=C14,Fluoromethalone,-4.099,log(mol/L),-4.099,log(mol/L),-
ClC1=CC2=C(N3C(=NN=C3C)CN=C2C=4C(Cl)=CC=CC4)C=C1,Halcion,-4.1,log(mol/L),-4.1,log(mol/L),-
CCCCCCCCCC(OCC)=O,ethyl caprinate,-4.1,log(mol/L),-4.1,log(mol/L),110-38-3
C12C3CC(C)C4=CC(C=CC4(C)C3(F)C(O)CC1(C)C(C(C)=O)(O)CC2)=O,fluoromethasone,-4.1,log(mol/L),-4.1,log(mol/L),426-13-1
CSC1=NC(NC(C)C)=NC(NC(C)C)=N1,prometryn,-4.1,log(mol/L),-4.1,log(mol/L),-
CC(C)NC1=NC(NC(C)C)=NC(SC)=N1,prometryn,-4.1,log(mol/L),-4.1,log(mol/L),7287-19-6
CCCCCCCCCC(OCC)=O,Ethyl decanoate,-4.1,log(mol/L),-4.1,log(mol/L),-
C1=NC=NN1C(C(O)C(C)(C)C)CC2=CC=C(Cl)C=C2,Paclobutrazol,22.9,mg/L,-4.108,log(mol/L),76738-62-0
O=C(C1C(=O)C2=CC=CC=C2C1=O)C(C)(C)C,pindone,-4.11,log(mol/L),-4.11,log(mol/L),83-26-1
CCOP(=S)(OCC)SCSCC,phorate,-4.11,log(mol/L),-4.11,log(mol/L),-
COC1=CC=C2C(C3N(CCC4=C3C=C5OCOC5=C4)C)OC(C2=C1OC)=O,hydrastine,-4.11,log(mol/L),-4.11,log(mol/L),118-08-1
CC1CCCCC1NC(=O)NC2=CC=CC=C2,siduron,-4.11,log(mol/L),-4.11,log(mol/L),-
S=P(OCC)(OCC)SCSCC,phorate,-4.11,log(mol/L),-4.11,log(mol/L),298-02-2
O=C(NC1=CC=CC=C1)NC2CCCCC2C,siduron,-4.11,log(mol/L),-4.11,log(mol/L),1982-49-6
COC1=CC=C2C(OC(=O)C2=C1OC)C3N(C)CCC4=CC=5OCOC5C=C34,hydrastine,-4.11,log(mol/L),-4.11,log(mol/L),-
CCN1C2=NC(Cl)=CC=C2N(C)C(=O)C3=CC=CN=C13,-,-4.114,log(mol/L),-4.114,log(mol/L),-
CC12CCC3C(CC=C4CC(O)CCC34C)C1CCC2=O,prasterone,-4.12,log(mol/L),-4.12,log(mol/L),-
C1C(O)CC2=CCC3C4CCC(=O)C4(C)CCC3C2(C)C1,prasterone,-4.12,log(mol/L),-4.12,log(mol/L),-
CC(C)CC1=CC=CC=C1,isobutylbenzene,-4.12,log(mol/L),-4.12,log(mol/L),-
CC12C(=CCC3C1CCC4(C3CCC4=O)C)CC(CC2)O,prasterone,-4.12,log(mol/L),-4.12,log(mol/L),53-43-0
C(C1=CC=CC=C1)C(C)C,isobutylbenzene,-4.12,log(mol/L),-4.12,log(mol/L),-
CC(C)CC1=CC=CC=C1,isobutylbenzene,-4.12,log(mol/L),-4.12,log(mol/L),538-93-2
CCCSP(=O)(OCC)OC1=CC=C(Br)C=C1Cl,Profenofos,28.0,mg/L,-4.125,log(mol/L),41198-08-7
O=C1C=CC2(C)C(CCC3C2(F)C(O)CC4(C)C3CC(OC(C)=O)C4(O)C(COC(C)=O)=O)=C1,triamcinolone diacetate,-4.13,log(mol/L),-4.13,log(mol/L),67-78-7
CC(=O)OCC(=O)C1(O)C(CC2C3CCC4=CC(=O)C=CC4(C)C3(F)C(O)CC12C)OC(C)=O,triamcinolone diacetate,-4.13,log(mol/L),-4.13,log(mol/L),-
ClC1=CC=C2C=CC=CC2=C1,2-Chloronapthalene,-4.14,log(mol/L),-4.14,log(mol/L),-
ClC1=CC=2C=CC=CC2C=C1,2-chloronaphthalene,-4.14,log(mol/L),-4.14,log(mol/L),91-58-7
CC=1C=2C=CC=CC2C(C)=CC1,"1,4-dimethylnaphthalene",-4.14,log(mol/L),-4.14,log(mol/L),571-58-4
CC1=CC=C(C2=C1C=CC=C2)C,"1,4-dimethylnaphthalene",-4.14,log(mol/L),-4.14,log(mol/L),-
CC1=CC=C(C)C=2C=CC=CC12,"1,4-dimethylnaphthalene",-4.14,log(mol/L),-4.14,log(mol/L),-
OCCN1CCN(CC1)CCCN2C3=C(C=CC(C(F)(F)F)=C3)SC4=C2C=CC=C4,Fluphenazine,-4.15,log(mol/L),-4.15,log(mol/L),69-23-8
CCC(C)(C)C1=CC=CC=C1,t-amylbenzene,-4.15,log(mol/L),-4.15,log(mol/L),-
OCCN1CCN(CCCN2C3=CC=CC=C3SC4=CC=C(Cl)C=C24)CC1,Perphenazine,-4.15,log(mol/L),-4.15,log(mol/L),-
OCCN1CCN(CCCN2C3=CC=CC=C3SC4=CC=C(C=C24)C(F)(F)F)CC1,Fluphenazine,-4.15,log(mol/L),-4.15,log(mol/L),-
C1CCCCCCC1,cyclooctane,-4.15,log(mol/L),-4.15,log(mol/L),-
C1CCCCCCC1,cyclooctane,-4.15,log(mol/L),-4.15,log(mol/L),292-64-8
CC(C)(C)CC1=CC=CC=C1,t-Pentylbenzene,-4.15,log(mol/L),-4.15,log(mol/L),-
CC(C)(C1=CC=CC=C1)CC,t-amylbenzene,-4.15,log(mol/L),-4.15,log(mol/L),2049-95-8
CCCOP(=S)(OCCC)SCC(=O)N1CCCCC1C,Piperophos,-4.15,log(mol/L),-4.15,log(mol/L),-
C(CC1=CC=CC=C1)(C)(C)C,t-Pentylbenzene,-4.15,log(mol/L),-4.15,log(mol/L),-
CC(C(O)=O)C1=CC=C(C(F)=C1)C2=CC=CC=C2,Flurbiprofen,70.5019,?M/L,-4.152,log(mol/L),-
CCCCC1=C(OS(=O)(N(C)C)=O)N=C(NCC)N=C1C,bupirimate,-4.16,log(mol/L),-4.16,log(mol/L),41483-43-6
CCCCC1=C(C)N=C(NCC)N=C1OS(=O)(=O)N(C)C,bupirimate,-4.16,log(mol/L),-4.16,log(mol/L),-
CN1S(C2=CC=CC=C2C(O)=C1C(NC3=NC=CC=C3)=O)(=O)=O,Piroxicam,-4.16,log(mol/L),-4.16,log(mol/L),36322-90-4
COC1=CC=C2C(C=CC(C(C)C(O)=O)=C2)=C1,naprosyn,-4.16,log(mol/L),-4.16,log(mol/L),22204-53-1
CN1C(=C(O)C2=CC=CC=C2S1(=O)=O)C(=O)NC3=CC=CC=N3,Piroxicam,-4.16,log(mol/L),-4.16,log(mol/L),-
COC1=CC=C(OC2=CC=C(C=C2)NC(N(C)C)=O)C=C1,difenoxuron,-4.16,log(mol/L),-4.16,log(mol/L),14214-32-5
CC12C(CCC3C1CCC4(C3CCC4=O)C)CC(CC2)O,epiandrosterone,-4.16,log(mol/L),-4.16,log(mol/L),481-29-8
ClC1=CC2=C(C=C1)SC3=C(C=CC=C3)N2CCCN4CCN(CCO)CC4,Perphenazine,-4.16,log(mol/L),-4.16,log(mol/L),58-39-9
COC1=CC=C(OC2=CC=C(NC(=O)N(C)C)C=C2)C=C1,difenoxuron,-4.16,log(mol/L),-4.16,log(mol/L),-
CC12CCC3C(CCC4CC(O)CCC34C)C1CCC2=O,epiandrosterone,-4.16,log(mol/L),-4.16,log(mol/L),-
OC(=O)C1=CC=CN=C1NC2=CC(C(F)(F)F)=CC=C2,Niflumic acid,-4.17,log(mol/L),-4.17,log(mol/L),-
C1(=CC=CC=C1)CC2=CC=CC=C2,diphenylmethane,-4.17,log(mol/L),-4.17,log(mol/L),-
OC(C1=CC=CN=C1NC2=CC=CC(C(F)(F)F)=C2)=O,Niflumic acid,-4.17,log(mol/L),-4.17,log(mol/L),4394-00-7
C(C)C1=CC=CC2=C1C=CC=C2,1-ethylnaphthalene,-4.17,log(mol/L),-4.17,log(mol/L),-
C1(CC2=CC=CC=C2)=CC=CC=C1,diphenylmethane,-4.17,log(mol/L),-4.17,log(mol/L),101-81-5
CCC=1C=2C=CC=CC2C=CC1,1-ethylnaphthalene,-4.17,log(mol/L),-4.17,log(mol/L),1127-76-0
CCC1=CC=CC=2C=CC=CC12,1-ethylnaphthalene,-4.17,log(mol/L),-4.17,log(mol/L),-
CC(=O)SC1CC2=CC(=O)CCC2(C)C3CCC4(C)C(CCC45CCC(=O)O5)C13,spironolactone,-4.173,log(mol/L),-4.173,log(mol/L),-
OC1(C(OC)=O)C2=C(C=CC(Cl)=C2)C3=C1C=CC=C3,Methyl-2-chloro-9-hydroxyfluorene-9-carboxylate,-4.18,log(mol/L),-4.18,log(mol/L),2536-31-4
COP(=S)(OC)SCN1N=NC2=CC=CC=C2C1=O,-,1.320146,log(mg/L),-4.181,log(mol/L),86-50-0
S=P(OC)(OC)SCN1N=NC2=CC=CC=C2C1=O,methyl azinphos,20.9,mg/L,-4.181,log(mol/L),86-50-0
CC(C)C1=CC=CC=C1Br,"BENZENE, 1-BROMO-2-(1-METHYLETHYL)-",12.9,mg/L,-4.188,log(mol/L),7073-94-1
CCCCOCN(C(=O)CCl)C1=C(CC)C=CC=C1CC,butachlor,-4.19,log(mol/L),-4.19,log(mol/L),-
O=C(CCl)N(C1=C(CC)C=CC=C1CC)COCCCC,butachlor,-4.19,log(mol/L),-4.19,log(mol/L),23184-66-9
CN(C)CCCN1C2=CC=CC=C2CCC3=CC=CC=C13,Imipramine,-4.19,log(mol/L),-4.19,log(mol/L),-
ClC(Cl)(Cl)C(N1CCN(C(NC=O)C(Cl)(Cl)Cl)CC1)NC=O,triforine,-4.19,log(mol/L),-4.19,log(mol/L),26644-46-2
CN(CCCN1C2=C(CCC3=C1C=CC=C3)C=CC=C2)C,Imipramine,-4.19,log(mol/L),-4.19,log(mol/L),50-49-7
ClC(Cl)(Cl)C(NC=O)N1C=CN(C=C1)C(NC=O)C(Cl)(Cl)Cl,triforine,-4.19,log(mol/L),-4.19,log(mol/L),-
C1=CC=C(C=C1)N=NC2=C(N=C(C=C2)N)N,Phenazopyridine,64.0651,?M/L,-4.193,log(mol/L),-
CCOP(=S)(NC(C)C)OC1=CC=CC=C1C(=O)OC(C)C,Isofenphos,-4.194,log(mol/L),-4.194,log(mol/L),-
CC(C)OP(=S)(OC(C)C)SCCNS(=O)(=O)C1=CC=CC=C1,bensulide,-4.2,log(mol/L),-4.2,log(mol/L),-
CC(OP(OC(C)C)(SCCNS(=O)(C1=CC=CC=C1)=O)=S)C,bensulide,-4.2,log(mol/L),-4.2,log(mol/L),741-58-2
CCN1C2=NC(C)=CC(C(F)(F)F)=C2NC(=O)C3=CC=CN=C13,RTI 13,-4.207,log(mol/L),-4.207,log(mol/L),-
CC(=O)OCC(=O)C1(O)CCC2C3CCC4=CC(=O)CCC4(C)C3C(=O)CC12C,cortisone acetate,-4.21,log(mol/L),-4.21,log(mol/L),-
O=C(C1=CC=CC=C1I)NC2=CC=CC=C2,benodanil,-4.21,log(mol/L),-4.21,log(mol/L),15310-01-7
C1=CC(C)=CC=C1S(=O)(=O)NC(=O)NC2CCCCC2,tolcyclamide,-4.21,log(mol/L),-4.21,log(mol/L),-
C1=C(NC(=O)C2=CC=CC=C2I)C=CC=C1,benodanil,-4.21,log(mol/L),-4.21,log(mol/L),-
O=S(NC(NC1CCCCC1)=O)(C2=CC=C(C=C2)C)=O,tolcyclamide,-4.21,log(mol/L),-4.21,log(mol/L),664-95-9
CC(CN(C)C)CN1C2=CC(OC)=CC=C2SC3=C1C=CC=C3,methotrimeprazine,-4.22,log(mol/L),-4.22,log(mol/L),60-99-1
NC=1C2=CC=3C=CC=CC3N=C2C=CC1,1-aminoacridine,-4.22,log(mol/L),-4.22,log(mol/L),578-06-3
NC1=CC=CC2=NC=3C=CC=CC3C=C12,1-aminoacridine,-4.22,log(mol/L),-4.22,log(mol/L),-
C1=CC=C2SC3=CC=C(OC)C=C3N(CC(C)CN(C)C)C2=C1,Levomepromazine,-4.22,log(mol/L),-4.22,log(mol/L),-
CCC(C)(C)CC,"3,3-Dimethylpentane",-4.23,log(mol/L),-4.23,log(mol/L),-
ClC(C(Cl)=CCl)=C(Cl)Cl,pentachlorobutadiene,-4.23,log(mol/L),-4.23,log(mol/L),55880-77-8
S=P(OCC)(OCC)SCCSCC,disulfoton,-4.23,log(mol/L),-4.23,log(mol/L),298-04-4
CCOP(=S)(OCC)SCCSCC,disulfoton,-4.23,log(mol/L),-4.23,log(mol/L),-
C(CC)(CC)(C)C,"3,3-Dimethylpentane",-4.23,log(mol/L),-4.23,log(mol/L),-
ClC(=C(C=C(Cl)Cl)Cl)Cl,pentachlorobutadiene,-4.23,log(mol/L),-4.23,log(mol/L),55880-77-8
N#CC1=C(Cl)C=CC=C1Cl,"2,6-dichlorobenzonitrile",-4.24,log(mol/L),-4.24,log(mol/L),1194-65-6
ClC1=C(C(=CC=C1)Cl)C#N,"2,6-dichlorobenzonitrile",-4.24,log(mol/L),-4.24,log(mol/L),-
CCCCCCCC#C,1-nonyne,-4.24,log(mol/L),-4.24,log(mol/L),-
C(CCCC#C)CCC,1-nonyne,-4.24,log(mol/L),-4.24,log(mol/L),-
C#CCCCCCCC,1-nonyne,-4.24,log(mol/L),-4.24,log(mol/L),-
C1(C(C)(C)C)=CC(C(C)(C)C)=CC(OC(=O)NC)=C1,butacarb,-4.24,log(mol/L),-4.24,log(mol/L),-
O=C(OC1=CC(C(C)(C)C)=CC(C(C)(C)C)=C1)NC,butacarb,-4.24,log(mol/L),-4.24,log(mol/L),2655-19-8
NC1=CC=C(N=NC2=CC=CC=C2)C(N)=N1,Phenazopyridine,-4.24,log(mol/L),-4.24,log(mol/L),-
C(C(F)(F)F)(F)(F)F,HEXAFLUOROETHANE,7.78,mg/L,-4.249,log(mol/L),76-16-4
C1(CCCCC1)CC,ethylcyclohexane,-4.25,log(mol/L),-4.25,log(mol/L),-
CCC1CCCCC1,ethylcyclohexane,-4.25,log(mol/L),-4.25,log(mol/L),-
CCC1CCCCC1,ethylcyclohexane,-4.25,log(mol/L),-4.25,log(mol/L),1678-91-7
C(C(F)(F)F)(F)(F)F,-,0.89,log(mg/L),-4.25,log(mol/L),76-16-4
C1(=CCC(C(=C)C)CC1)C,LIMONENE,7.57,mg/L,-4.255,log(mol/L),138-86-3
COC1=CC=CC=C1OCCNCC(O)COC2=CC=CC=3NC=4C=CC=CC4C23,Carvedilol,55.5,?M/L,-4.256,log(mol/L),-
CC(C)CC(C)C,"2,4-dimethylpentane",-4.26,log(mol/L),-4.26,log(mol/L),108-08-7
C1C(=O)CC2CCC3C4CCC(O)C4(C)CCC3C2(C)C1,Stanolone,-4.26,log(mol/L),-4.26,log(mol/L),-
C1=CC=C2SC3=CC=CC=C3N(CC(C)N(C)C)C2=C1,Promethazine,-4.26,log(mol/L),-4.26,log(mol/L),-
C(CC(C)C)(C)C,"2,4-dimethylpentane",-4.26,log(mol/L),-4.26,log(mol/L),-
CC(N(C)C)CN1C2=C(C=CC=C2)SC3=C1C=CC=C3,Promethazine,-4.26,log(mol/L),-4.26,log(mol/L),60-87-7
CC(C)CC(C)C,"2,4-dimethylpentane",-4.26,log(mol/L),-4.26,log(mol/L),-
CC1=CCC(C(C)=C)CC1,d-limonene,-4.26,log(mol/L),-4.26,log(mol/L),-
ClC1=C(C=CC(=C1)Cl)C(CN2N=CN=C2)(O)CCCC,Hexaconazole,17.0,mg/L,-4.267,log(mol/L),79983-71-4
CCCCC(O)(CN1C=NC=N1)C2=C(Cl)C=C(Cl)C=C2,-,1.230449,log(mg/L),-4.267,log(mol/L),79983-71-4
C1(C(CCCC1)C)C,"trans-1,2-dimethylcyclohexane",-4.27,log(mol/L),-4.27,log(mol/L),-
CC1C(C)CCCC1,"cis-1,2-dimethylcyclohexane",-4.27,log(mol/L),-4.27,log(mol/L),-
C1(C(CCCC1)C)C,"cis-1,2-dimethylcyclohexane",-4.27,log(mol/L),-4.27,log(mol/L),-
FC1=CC(Cl)=C(CC(Cl)C(=O)OCC)C=C1N2C(=O)N(C(F)F)C(C)=N2,Carfentrazone-ethyl,22.0,mg/L,-4.273,log(mol/L),128639-02-1
CCOC(=O)C(Cl)CC1=CC(N2N=C(C)N(C(F)F)C2=O)=C(F)C=C1Cl,-,1.342423,log(mg/L),-4.273,log(mol/L),128639-02-1
ClC1=C(C(=C(C(=C1Cl)Cl)O)Cl)Cl,Pentachlorophenol,-4.28,log(mol/L),-4.28,log(mol/L),-
O=C1CCC2(C)C(CC(SC(C)=O)C3C2CCC4(C)C3CCC45OC(CC5)=O)=C1,spironolactone,-4.28,log(mol/L),-4.28,log(mol/L),52-01-7
OC1=C(Cl)C(Cl)=C(Cl)C(Cl)=C1Cl,Pentachlorophenol,-4.28,log(mol/L),-4.28,log(mol/L),87-86-5
CCC(C)C(C)C,"2,3-Dimethylpentane",-4.28,log(mol/L),-4.28,log(mol/L),-
C1CC(N2C3=CC=CC=C3NC2=O)CCN1CCCC(=O)C4=CC=C(F)C=C4,Benperidol,-4.28,log(mol/L),-4.28,log(mol/L),-
C(C(C)C)(CC)C,"2,3-Dimethylpentane",-4.28,log(mol/L),-4.28,log(mol/L),-
O=C1OC2(C3(C(C4C(C5(C(=CC(=O)CC5)CC4SC(=O)C)C)CC3)CC2)C)CC1,spironolactone,-4.28,log(mol/L),-4.28,log(mol/L),-
OC1=C(Cl)C(Cl)=C(Cl)C(Cl)=C1Cl,Pentachlorophenol,-4.28,log(mol/L),-4.28,log(mol/L),-
CC(C)N(C(C)C)C(=O)SCC(=CCl)Cl,diallate,-4.286,log(mol/L),-4.286,log(mol/L),-
CC=1C=2C=CC=CC2C=C(C)C1,"1,3-dimethylnaphthalene",-4.29,log(mol/L),-4.29,log(mol/L),575-41-7
CCC1=CC=C2C=CC=CC2=C1,2-ethylnaphthalene,-4.29,log(mol/L),-4.29,log(mol/L),-
OC1C2C3C(C(CC3)C(CCC(O)=O)C)(CCC2C4(C(C1)CC(O)CC4)C)C,ursodeoxycholic acid,-4.29,log(mol/L),-4.29,log(mol/L),128-13-2
CCC1=CC=2C=CC=CC2C=C1,2-ethylnaphthalene,-4.29,log(mol/L),-4.29,log(mol/L),939-27-5
S=P(OCC)(OCC)OC1=CC=C(N(=O)=O)C=C1,parathion,-4.29,log(mol/L),-4.29,log(mol/L),56-38-2
CC(CCC(O)=O)C1CCC2C3C(O)CC4CC(O)CCC4(C)C3CCC12C,ursodeoxycholic acid,-4.29,log(mol/L),-4.29,log(mol/L),128-13-2
C(C)C1=CC2=C(C=C1)C=CC=C2,2-ethylnaphthalene,-4.29,log(mol/L),-4.29,log(mol/L),-
CC1=CC(=CC2=C1C=CC=C2)C,"1,3-dimethylnaphthalene",-4.29,log(mol/L),-4.29,log(mol/L),-
CC1=CC(C)=C2C=CC=CC2=C1,"1,3-dimethylnaphthalene",-4.29,log(mol/L),-4.29,log(mol/L),-
OCCC(F)(F)C(F)(F)C(F)(F)C(F)(F)C(F)(F)C(F)(F)F,-,1.27,log(mg/L),-4.291,log(mol/L),647-42-7
CC1CCCCC1C,"cis-1,2-dimethylcyclohexane",-4.3,log(mol/L),-4.3,log(mol/L),-
C1=CC=C2SC3=CC=CC=C3N(CCCN(C)C)C2=C1,Promazine,-4.3,log(mol/L),-4.3,log(mol/L),-
CC(OCC(C1(O)CCC2C3CCC4=CC(CCC4(C)C3C(O)CC21C)=O)=O)=O,hydrocortisone acetate,-4.3,log(mol/L),-4.3,log(mol/L),50-03-3
CN(C)CCCN1C2=C(SC3=C1C=CC=C3)C=CC=C2,Promazine,-4.3,log(mol/L),-4.3,log(mol/L),58-40-2
OC1=CC=2CCC3C(CCC4(C)C3CCC4(C#C)O)C2C=C1,ethinyl estradiol,-4.3,log(mol/L),-4.3,log(mol/L),57-63-6
CC12CCC3C(CCC4=CC(O)=CC=C34)C1CCC2(O)C#C,ethinyl estradiol,-4.3,log(mol/L),-4.3,log(mol/L),-
COP(OC)(OC1=C(Cl)C=C(N(=O)=O)C=C1)=S,dicaphton,-4.31,log(mol/L),-4.31,log(mol/L),2463-84-5
C1(C2=CC=CC=C2)=CC=CC=C1,biphenyl,-4.31,log(mol/L),-4.31,log(mol/L),92-52-4
C1=CC(=CC=C1)C2=CC=CC=C2,biphenyl,-4.31,log(mol/L),-4.31,log(mol/L),-
COC1=CC=C2C=CC(=O)OC2=C1CC=C(C)C,osthole,-4.31,log(mol/L),-4.31,log(mol/L),484-12-8
COP(=S)(OC)OC1=CC=C(C=C1Cl)N(=O)=O,Dicapthon,-4.31,log(mol/L),-4.31,log(mol/L),-
O=C(O)CCCCCCCCCCCCCC,pentadecanoic acid,-4.31,log(mol/L),-4.31,log(mol/L),1002-84-2
CC1(C)OC2CC3C4CCC5=CC(=O)C=CC5(C)C4(F)C(O)CC3(C)C2(O1)C(=O)CO,triamcinolone acetonide,-4.31,log(mol/L),-4.31,log(mol/L),-
O=C1OC2=C(C=C1)C=CC(OC)=C2CC=C(C)C,osthole,-4.31,log(mol/L),-4.31,log(mol/L),484-12-8
C1=CC=2C=CC(OC)=C(CC=C(C)C)C2OC1=O,osthole,-4.314,log(mol/L),-4.314,log(mol/L),-
O=C1C=CC2(C)C(CCC3C2(F)C(O)CC4(C)C3CC5C4(OC(C)(C)O5)C(CO)=O)=C1,triamcinolone acetonide,-4.32,log(mol/L),-4.32,log(mol/L),76-25-5
O=C1C=C2CCC3C4CC5OC(C)(C)OC5(C(=O)CO)C4(C)CC(O)C3(F)C2(C)C=C1,triamcinolone acetonide,-4.32,log(mol/L),-4.32,log(mol/L),-
ClC1=CC(Cl)=C(OCC#C)C=C1N2N=C3CCCCN3C2=O,-,1.20412,log(mg/L),-4.325,log(mol/L),68049-83-2
C1CCC2=NN(C3=CC(OCC#C)=C(Cl)C=C3Cl)C(=O)N2C1,Azafenidin,16.0,mg/L,-4.325,log(mol/L),68049-83-2
CN(C)C(=O)NC1=CC=C(C(Cl)=C1)N2N=C(OC2=O)C(C)(C)C,Dimefuron,-4.328,log(mol/L),-4.328,log(mol/L),-
C1=CC(Cl)=CC=C1CC2CCC(C)(C)C2(O)CN3N=CN=C3,Metconazole,15.0,mg/L,-4.329,log(mol/L),125116-23-6
CC1(C)CCC(CC2=CC=C(Cl)C=C2)C1(O)CN3C=NC=N3,-,1.176091,log(mg/L),-4.329,log(mol/L),125116-23-6
O=C(NC(C)(C)C)C1N(CC2C(C1)CCCC2)CC(O)C(NC(=O)C(NC(=O)C3=NC=4C(C=C3)=CC=CC4)CC(=O)N)CC5=CC=CC=C5,saquinavir,-4.33,log(mol/L),-4.33,log(mol/L),-
CC1NC2=CC(Cl)=C(C=C2C(=O)N1C3=CC=CC=C3C)S(N)(=O)=O,Metolazone,-4.33,log(mol/L),-4.33,log(mol/L),-
CC1CCCCC1C,"trans-1,2-dimethylcyclohexane",-4.33,log(mol/L),-4.33,log(mol/L),6876-23-9
C1=CC=C(C=C1)C2=CC=CC=C2,biphenyl,-4.345,log(mol/L),-4.345,log(mol/L),-
C1=CC(O)=CC=C1C(CC)C(CC)C2=CC=C(O)C=C2,hexestrol,-4.35,log(mol/L),-4.35,log(mol/L),-
CC(C1CCC2C3CC(C4CC(CCC4(C3CC(C12C)O)C)O)O)CCC(O)=O,hyocholic acid,-4.35,log(mol/L),-4.35,log(mol/L),547-75-1
BrC1=CC=CC=2C=CC=CC21,1-bromonapthtalene,-4.35,log(mol/L),-4.35,log(mol/L),90-11-9
OC1=CC=C(C(CC)=C(CC)C2=CC=C(O)C=C2)C=C1,des,-4.35,log(mol/L),-4.35,log(mol/L),56-53-1
BrC1=CC=CC=2C=CC=CC12,1-Bromonapthalene,-4.35,log(mol/L),-4.35,log(mol/L),-
OC1=CC=C(C(=C(C2=CC=C(O)C=C2)CC)CC)C=C1,Diethylstilbestrol,-4.35,log(mol/L),-4.35,log(mol/L),-
BrC1=CC=CC2=C1C=CC=C2,1-bromonapthtalene,-4.35,log(mol/L),-4.35,log(mol/L),-
C(CCC)(C)(C)C,"2,2-Dimethylpentane",-4.36,log(mol/L),-4.36,log(mol/L),-
O=C(O)C1=C(C=CC=C1)NC2=CC(C(F)(F)F)=CC=C2,flufenamic acid,-4.36,log(mol/L),-4.36,log(mol/L),530-78-9
O=C(C(=CC1C(=CCCC1(C)C)C)C)C,FRA-021; g-methyl ionone,9.0,mg/L,-4.36,log(mol/L),127-51-5
C(C(C)C)(C)(C)C,"2,2,3-Trimethylbutane",-4.36,log(mol/L),-4.36,log(mol/L),-
CC(C)C(C)(C)C,"2,2,3-Trimethylbutane",-4.36,log(mol/L),-4.36,log(mol/L),-
CCCC(C)(C)C,"2,2-Dimethylpentane",-4.36,log(mol/L),-4.36,log(mol/L),-
C1CCC2=CC=CC=C2C1,"1,2,3,4-Tetrahydronapthalene",-4.37,log(mol/L),-4.37,log(mol/L),-
O=C1C=CC2(C)C(CCC3C2C(O)CC4(C)C3CCC4(O)C(COC(C)=O)=O)=C1,prednisolone acetate,-4.37,log(mol/L),-4.37,log(mol/L),52-21-1
O=C(OCC#CCCl)NC1=CC=CC(Cl)=C1,barbane,-4.37,log(mol/L),-4.37,log(mol/L),101-27-9
CC(=O)OCC(=O)C1(O)CCC2C3CCC4=CC(=O)C=CC4(C)C3C(O)CC12C,prednisolone acetate,-4.37,log(mol/L),-4.37,log(mol/L),-
C1CCC2=C(C=CC=C2)C1,"1,2,3,4-Tetrahydronapthalene",-4.37,log(mol/L),-4.37,log(mol/L),-
ClCC#CCOC(=O)NC1=CC=CC(Cl)=C1,Barban,-4.37,log(mol/L),-4.37,log(mol/L),-
O1C2C34C5(CC(C2(OC)CC5)C(O)(C(C)(C)C)C)C(N(CC3)CC6CC6)CC7=C4C1=C(O)C=C7,Buprenorphine,-4.37,log(mol/L),-4.37,log(mol/L),-
CC(C)NC(=O)N1CC(=O)N(C1=O)C2=CC(Cl)=CC(Cl)=C2,Rovral,-4.376,log(mol/L),-4.376,log(mol/L),-
C=12C=CC=CC1SC3=C2C=CC=C3,dibenzothiophene,-4.38,log(mol/L),-4.38,log(mol/L),132-65-0
C1=CC=C2C(=C1)SC=3C=CC=CC23,dibenzothiophene,-4.38,log(mol/L),-4.38,log(mol/L),-
OC(C1=CC=C(Cl)C=C1)(C2=CN=CN=C2)C3=CC=CC=C3Cl,fenarimol,-4.38,log(mol/L),-4.38,log(mol/L),-
OC(C1=C(Cl)C=CC=C1)(C2=CN=CN=C2)C3=CC=C(Cl)C=C3,fenarimol,-4.38,log(mol/L),-4.38,log(mol/L),60168-88-9
N1(N(C2=CC=CC=C2)C(C(CCCC)C1=O)=O)C3=CC=CC=C3,Phenylbutazone,40.6647,?M/L,-4.391,log(mol/L),-
OC1CC2C(C3C(C4C(CC3)(C(=O)CC4)C)CC2)(CC1)C,androsterone,-4.4,log(mol/L),-4.4,log(mol/L),53-41-8
BrC1=CC=2C=CC=CC2C=C1,2-bromonaphthalene,-4.4,log(mol/L),-4.4,log(mol/L),580-13-2
O=C(OCCCC)C1=CC=CC=C1C(OCCCC)=O,dibutyl phthalate,-4.4,log(mol/L),-4.4,log(mol/L),84-74-2
C1=C(Br)C=CC=2C=CC=CC12,2-bromonaphthalene,-4.4,log(mol/L),-4.4,log(mol/L),-