SMILES,NAME,Water solubility,UNIT {Water solubility},Solubility_log(mol/L),UNIT {Water solubility}.1,CASRN,MolW(Da),NumHAcceptors,NumHDonors,LogP,Lipinski_rule,Solubility(mol/L)
CCc1ccc2cc3ccccc3cc2c1,2-ethylanthracene,-6.89,log(mol/L),-6.89,log(mol/L),52251-71-5,206.28799999999998,0,0,4.555400000000003,1,1.2882495516931348e-07
COc1ccc(C(c2ccc(OC)cc2)C(Cl)(Cl)Cl)cc1,methoxychlor,-6.89,log(mol/L),-6.89,log(mol/L),72-43-5,345.653,2,0,5.205900000000003,0,1.2882495516931348e-07
COc1ccc(C(c2ccc(OC)cc2)C(Cl)(Cl)Cl)cc1,methoxychlor,-6.89,log(mol/L),-6.89,log(mol/L),-,345.653,2,0,5.205900000000003,0,1.2882495516931348e-07
CCc1ccc2cc3ccccc3cc2c1,2-ethylanthracene,-6.89,log(mol/L),-6.89,log(mol/L),-,206.28799999999998,0,0,4.555400000000003,1,1.2882495516931348e-07
ClC(Cl)=C(c1ccc(Cl)cc1)c1ccc(Cl)cc1,"p,p?-dde",-6.9,log(mol/L),-6.9,log(mol/L),72-55-9,318.0300000000001,0,0,6.187900000000003,0,1.2589254117941662e-07
ClC(Cl)=C(c1ccc(Cl)cc1)c1ccc(Cl)cc1,DDE,-6.9,log(mol/L),-6.9,log(mol/L),-,318.0300000000001,0,0,6.187900000000003,0,1.2589254117941662e-07
ClC(Cl)=C(c1ccc(Cl)cc1)c1ccc(Cl)cc1,"P,P'-DDE",0.04,mg/L,-6.9,log(mol/L),72-55-9,318.0300000000001,0,0,6.187900000000003,0,1.2589254117941662e-07
ClC(Cl)=C(c1ccc(Cl)cc1)c1ccc(Cl)cc1,"P,P'-DDE",-6.9,log(mol/L),-6.9,log(mol/L),72-55-9,318.0300000000001,0,0,6.187900000000003,0,1.2589254117941662e-07
ClC(Cl)=C(c1ccc(Cl)cc1)c1ccc(Cl)cc1,"P,P'-DDE",-6.91,log(mol/L),-6.91,log(mol/L),-,318.0300000000001,0,0,6.187900000000003,0,1.2302687708123812e-07
CCCCC(CC)COC(=O)c1ccccc1C(=O)OCC(CC)CCCC,di-(2-ethylhexyl)-phthalate,-6.96,log(mol/L),-6.96,log(mol/L),117-81-7,390.5640000000003,4,0,6.433000000000007,0,1.0964781961431852e-07
Cc1ccc2cc3ccccc3cc2c1,2-methylanthracene,-6.96,log(mol/L),-6.96,log(mol/L),613-12-7,192.261,0,0,4.301420000000002,1,1.0964781961431852e-07
Cc1ccc2cc3ccccc3cc2c1,2-methylanthracene,-6.96,log(mol/L),-6.96,log(mol/L),-,192.261,0,0,4.301420000000002,1,1.0964781961431852e-07
CCCCC(CC)COC(=O)c1ccccc1C(=O)OCC(CC)CCCC,Di(2-ethylhexyl)-phthalate,-6.96,log(mol/L),-6.96,log(mol/L),-,390.5640000000003,4,0,6.433000000000007,0,1.0964781961431852e-07
Brc1cc(Br)c(Br)cc1Br,"1,2,4,5-Tetrabromobenzene",-6.98,log(mol/L),-6.98,log(mol/L),-,393.69800000000004,0,0,4.7366,1,1.0471285480508985e-07
Brc1cc(Br)c(Br)cc1Br,"1,2,4,5-Tetrabromobenzene",0.04,mg/L,-6.993,log(mol/L),636-28-2,393.69800000000004,0,0,4.7366,1,1.0162486928706948e-07
CC(C)CCCC(C)C1CCC2C3CC=C4CC(O)CCC4(C)C3CCC12C,Cholesterol,-7.0,log(mol/L),-7.0,log(mol/L),-,386.6640000000002,1,1,7.388700000000009,0,1e-07
Clc1ccc(Cl)c(-c2cc(Cl)ccc2Cl)c1,"2,2?,5,5?-pcb",-7.0,log(mol/L),-7.0,log(mol/L),35693-99-3,291.992,0,0,5.967200000000002,0,1e-07
Clc1ccc(Cl)c(-c2cc(Cl)ccc2Cl)c1,"2,2?,5,5?-PCB",-7.0,log(mol/L),-7.0,log(mol/L),-,291.992,0,0,5.967200000000002,0,1e-07
CCCCCCCCCCCCCCCCO,1-Hexadecanol,-7.0,log(mol/L),-7.0,log(mol/L),-,242.44699999999992,1,1,5.460000000000006,0,1e-07
Clc1ccc(Cl)c(-c2cc(Cl)ccc2Cl)c1,"2,2',5,5'-pcb",-7.0,log(mol/L),-7.0,log(mol/L),35693-99-3,291.992,0,0,5.967200000000002,0,1e-07
Cc1c(C)c2c3ccccc3ccc2c2ccccc12,"5,6-Dimethylchrysene",-7.01,log(mol/L),-7.01,log(mol/L),-,256.348,0,0,5.763040000000004,0,9.772372209558111e-08
Brc1ccc(Oc2c(Br)cc(Br)cc2Br)c(Br)c1,"BDE-100; 2,2',4,4',6-pentabromodiphenyl ether",9.58E-5,mmol/L,-7.019,log(mol/L),189084-64-8,564.691,1,0,7.291400000000002,0,9.571940712948441e-08
Cc1c2ccccc2c(C)c2c1ccc1ccccc12,"7,12-dimethylbenz(a)anthracene",-7.02,log(mol/L),-7.02,log(mol/L),57-97-6,256.348,0,0,5.763040000000005,0,9.549925860214369e-08
Cc1c2ccccc2c(C)c2c1ccc1ccccc12,"7,12-dimethylbenz(a)anthracene",-7.02,log(mol/L),-7.02,log(mol/L),-,256.348,0,0,5.763040000000005,0,9.549925860214369e-08
Clc1cccc(-c2ccc(Cl)c(Cl)c2Cl)c1Cl,"2,2?,3,3?,4-pcb",-7.05,log(mol/L),-7.05,log(mol/L),52663-62-4,326.437,0,0,6.620600000000001,0,8.912509381337459e-08
Clc1ccc(-c2ccc(Cl)c(Cl)c2Cl)cc1Cl,"2,2?,3,3?,4-PCB",-7.05,log(mol/L),-7.05,log(mol/L),-,326.437,0,0,6.6206000000000005,0,8.912509381337459e-08
Clc1cccc(-c2ccc(Cl)c(Cl)c2Cl)c1Cl,"1,2,3-trichloro-4-(2,3-dichlorophenyl)benzene",-7.05,log(mol/L),-7.05,log(mol/L),-,326.437,0,0,6.620600000000001,0,8.912509381337459e-08
Clc1cccc(-c2ccc(Cl)c(Cl)c2Cl)c1Cl,"2,2',3,3',4-pcb",-7.05,log(mol/L),-7.05,log(mol/L),52663-62-4,326.437,0,0,6.620600000000001,0,8.912509381337459e-08
CN(C)C(=O)C(CCN1CCC(O)(c2ccc(Cl)cc2)CC1)(c1ccccc1)c1ccccc1,loperamide,0.08427,?M/L,-7.074,log(mol/L),-,477.0480000000002,3,1,5.088000000000005,0,8.433347577642757e-08
c1ccc(-c2ccc(-c3ccccc3)cc2)cc1,p-terphenyl,-7.11,log(mol/L),-7.11,log(mol/L),-,230.31,0,0,5.0206000000000035,0,7.762471166286912e-08
c1ccc(-c2ccc(-c3ccccc3)cc2)cc1,p-terphenyl,-7.11,log(mol/L),-7.11,log(mol/L),92-94-4,230.31,0,0,5.0206000000000035,0,7.762471166286912e-08
Clc1ccc(C(c2ccc(Cl)cc2)C(Cl)(Cl)Cl)cc1,DDT,-7.15,log(mol/L),-7.15,log(mol/L),-,354.491,0,0,6.495500000000002,0,7.079457843841373e-08
Brc1ccc(Oc2c(Br)cc(Br)cc2Br)c(Br)c1,"BDE-100; 2,2',4,4',6-pentabromodiphenyl ether",4.0E-5 +- 1.0E-5,g/L,-7.15,log(mol/L),189084-64-8,564.691,1,0,7.291400000000002,0,7.079457843841373e-08
Brc1ccc(Oc2c(Br)cc(Br)cc2Br)c(Br)c1,"2,2',4,4',6-pentaBDE",-7.15,log(mol/L),-7.15,log(mol/L),-,564.691,1,0,7.291400000000002,0,7.079457843841373e-08
Clc1cc(-c2ccccc2)c(Cl)c(Cl)c1Cl,"2,3,4,5-pcb",-7.16,log(mol/L),-7.16,log(mol/L),33284-53-6,291.99199999999996,0,0,5.967200000000002,0,6.918309709189362e-08
Clc1cc(-c2ccccc2)c(Cl)c(Cl)c1Cl,"2,3,4,5-pcb",-7.16,log(mol/L),-7.16,log(mol/L),-,291.99199999999996,0,0,5.967200000000002,0,6.918309709189362e-08
Brc1ccc(Oc2cc(Br)c(Br)cc2Br)c(Br)c1,"2,2',4,4',5-Pentabromodiphenyl ether; BDE-099",6.88E-5,mmol/L,-7.162,log(mol/L),60348-60-9,564.691,1,0,7.291400000000002,0,6.886522963442762e-08
Clc1ccc(C(c2ccc(Cl)cc2)C(Cl)Cl)cc1,"P,P'-DDD",-7.2,log(mol/L),-7.2,log(mol/L),72-54-8,320.04600000000005,0,0,5.929000000000002,0,6.30957344480193e-08
Clc1ccc(C(c2ccc(Cl)cc2)C(Cl)Cl)cc1,DDD,-7.2,log(mol/L),-7.2,log(mol/L),-,320.04600000000005,0,0,5.929000000000002,0,6.30957344480193e-08
Clc1ccc(C(c2ccc(Cl)cc2)C(Cl)Cl)cc1,"p,p?-ddd",-7.2,log(mol/L),-7.2,log(mol/L),72-54-8,320.04600000000005,0,0,5.929000000000002,0,6.30957344480193e-08
Clc1ccccc1-c1cc(Cl)c(Cl)c(Cl)c1Cl,"2,2',3,4,5-PCB",-7.21,log(mol/L),-7.21,log(mol/L),55312-69-1,326.437,0,0,6.6206000000000005,0,6.165950018614822e-08
Clc1ccccc1-c1cc(Cl)c(Cl)c(Cl)c1Cl,"2,2?,3,4,5-pcb",-7.21,log(mol/L),-7.21,log(mol/L),55312-69-1,326.437,0,0,6.6206000000000005,0,6.165950018614822e-08
Clc1ccc(C(c2ccc(Cl)cc2)C(Cl)Cl)cc1,"P,P'-DDD",-7.21,log(mol/L),-7.21,log(mol/L),-,320.04600000000005,0,0,5.929000000000002,0,6.165950018614822e-08
Clc1ccccc1-c1cc(Cl)c(Cl)c(Cl)c1Cl,"2,2?,3,4,5-PCB",-7.21,log(mol/L),-7.21,log(mol/L),-,326.437,0,0,6.6206000000000005,0,6.165950018614822e-08
Clc1cc(Cl)c(-c2cccc(Cl)c2Cl)cc1Cl,"2,2',3,4,5-PCB",-7.21,log(mol/L),-7.21,log(mol/L),-,326.437,0,0,6.620600000000001,0,6.165950018614822e-08
O=C(NC(=O)c1c(F)cccc1F)Nc1cc(Cl)c(OC(F)(F)C(F)F)c(Cl)c1,Hexaflumuron,0.027,mg/L,-7.232,log(mol/L),86479-06-3,461.1450000000001,3,2,5.470200000000001,0,5.861381645140285e-08
Clc1ccc(Cl)c(-c2ccc(Cl)c(Cl)c2)c1,"2,3?,4?,5-pcb",-7.25,log(mol/L),-7.25,log(mol/L),32598-11-1,291.992,0,0,5.967200000000002,0,5.6234132519034905e-08
Clc1ccc(Cl)c(-c2ccc(Cl)c(Cl)c2)c1,"2,3',4',5-PCB",-7.25,log(mol/L),-7.25,log(mol/L),32598-11-1,291.992,0,0,5.967200000000002,0,5.6234132519034905e-08
Clc1ccc(Cl)c(-c2ccc(Cl)c(Cl)c2)c1,"2,3',4',5-PCB",-7.25,log(mol/L),-7.25,log(mol/L),-,291.992,0,0,5.967200000000002,0,5.6234132519034905e-08
Clc1ccc(Cl)c(-c2ccc(Cl)c(Cl)c2)c1,"2,3?,4?,5-PCB",-7.25,log(mol/L),-7.25,log(mol/L),-,291.992,0,0,5.967200000000002,0,5.6234132519034905e-08
CCCCCCCCCCCCCCCCO,cetyl alcohol,-7.26,log(mol/L),-7.26,log(mol/L),36653-82-4,242.44699999999992,1,1,5.460000000000006,0,5.495408738576248e-08
ClC1=C(Cl)C(Cl)(C2(Cl)C(Cl)=C(Cl)C(Cl)=C2Cl)C(Cl)=C1Cl,Dienochlor,-7.278,log(mol/L),-7.278,log(mol/L),-,474.6400000000002,0,0,7.725599999999999,0,5.272298614228232e-08
Clc1cccc(-c2cccc(Cl)c2Cl)c1Cl,"2,2',3,3'-PCB",-7.28,log(mol/L),-7.28,log(mol/L),-,291.99199999999996,0,0,5.967200000000002,0,5.248074602497723e-08
Clc1cccc(-c2cccc(Cl)c2Cl)c1Cl,"2,2?,3,3?-pcb",-7.28,log(mol/L),-7.28,log(mol/L),38444-93-8,291.99199999999996,0,0,5.967200000000002,0,5.248074602497723e-08
Clc1cccc(-c2cccc(Cl)c2Cl)c1Cl,"2,2',3,3'-PCB",-7.28,log(mol/L),-7.28,log(mol/L),38444-93-8,291.99199999999996,0,0,5.967200000000002,0,5.248074602497723e-08
O=C(NC(=O)c1c(F)cccc1F)Nc1cc(Cl)c(F)c(Cl)c1F,TEFLUBENZURON,-7.28,log(mol/L),-7.28,log(mol/L),-,381.1120000000001,2,2,4.5117,1,5.248074602497723e-08
CC1COC2CC3(C)C(CC4C5C=C6CC(O)CCC6(C)CC5CCC43C)OC2C1,diosgenin,-7.32,log(mol/L),-7.32,log(mol/L),-,414.6300000000003,3,1,5.508800000000006,0,4.78630092322638e-08
Clc1cc(Cl)c(-c2c(Cl)cccc2Cl)c(Cl)c1,"2,2,4,6,6?-pcb",-7.32,log(mol/L),-7.32,log(mol/L),56558-16-8,326.437,0,0,6.620600000000001,0,4.78630092322638e-08
Clc1cc(Cl)c(-c2c(Cl)cccc2Cl)c(Cl)c1,"2,2,4,6,6?-PCB",-7.32,log(mol/L),-7.32,log(mol/L),-,326.437,0,0,6.620600000000001,0,4.78630092322638e-08
CC1CCC2(OC1)OC1CC3C4CC=C5CC(O)CCC5(C)C4CCC3(C)C1C2C,diosgenin,-7.32,log(mol/L),-7.32,log(mol/L),512-04-9,414.6300000000003,3,1,5.713900000000006,0,4.78630092322638e-08
Clc1cc(Cl)c(-c2c(Cl)cccc2Cl)c(Cl)c1,"2,2,4,6,6'-PCB",-7.32,log(mol/L),-7.32,log(mol/L),56558-16-8,326.437,0,0,6.620600000000001,0,4.78630092322638e-08
Clc1cc(Cl)c(-c2c(Cl)cccc2Cl)c(Cl)c1,"2,2,4,6,6'-PCB",-7.32,log(mol/L),-7.32,log(mol/L),-,326.437,0,0,6.620600000000001,0,4.78630092322638e-08
Cc1c(F)c(F)c(COC(=O)C2C(C=C(Cl)C(F)(F)F)C2(C)C)c(F)c1F,Tetrafluthrin,0.02,mg/L,-7.321,log(mol/L),79538-32-2,418.7360000000001,2,0,5.551820000000002,0,4.775292736576911e-08
Cc1c(F)c(F)c(COC(=O)C2C(C=C(Cl)C(F)(F)F)C2(C)C)c(F)c1F,Tetrafluthrin,-7.321,log(mol/L),-7.321,log(mol/L),-,418.7360000000001,2,0,5.551820000000002,0,4.775292736576911e-08
ClC1=C(Cl)C2(Cl)C3C4C=CC(C4)C3C1(Cl)C2(Cl)Cl,aldrin,-7.33,log(mol/L),-7.33,log(mol/L),309-00-2,364.914,0,0,5.270200000000002,0,4.6773514128719815e-08
ClC1=C(Cl)C2(Cl)C3C4C=CC(C4)C3C1(Cl)C2(Cl)Cl,aldrin,-7.33,log(mol/L),-7.33,log(mol/L),-,364.914,0,0,5.270200000000002,0,4.6773514128719815e-08
CC1(C)C(C=C(Cl)Cl)C1C(=O)OC(C#N)c1ccc(F)c(Oc2ccccc2)c1,Cyfluthrin,-7.337,log(mol/L),-7.337,log(mol/L),-,434.29400000000015,4,0,6.317080000000003,0,4.6025657358135626e-08
Clc1ccc(-c2cc(Cl)c(Cl)cc2Cl)cc1Cl,"2,3',4,4',5-PCB",-7.39,log(mol/L),-7.39,log(mol/L),31508-00-6,326.437,0,0,6.6206000000000005,0,4.07380277804113e-08
Clc1ccc(-c2cc(Cl)c(Cl)cc2Cl)cc1Cl,"2,3?,4,4?,5-PCB",-7.39,log(mol/L),-7.39,log(mol/L),-,326.437,0,0,6.6206000000000005,0,4.07380277804113e-08
Clc1ccc(-c2cc(Cl)c(Cl)c(Cl)c2Cl)c(Cl)c1,"2,3',4,4',5-PCB",-7.39,log(mol/L),-7.39,log(mol/L),-,360.88200000000006,0,0,7.274,0,4.07380277804113e-08
Clc1cccc(Cl)c1-c1c(Cl)cccc1Cl,"2,2',6,6'-PCB",-7.39,log(mol/L),-7.39,log(mol/L),-,291.99199999999996,0,0,5.967200000000002,0,4.07380277804113e-08
Clc1ccc(-c2cc(Cl)c(Cl)cc2Cl)cc1Cl,"2,3?,4,4?,5-pcb",-7.39,log(mol/L),-7.39,log(mol/L),31508-00-6,326.437,0,0,6.6206000000000005,0,4.07380277804113e-08
Clc1cccc(Cl)c1-c1c(Cl)cccc1Cl,"2,2?,6,6?-pcb",-7.39,log(mol/L),-7.39,log(mol/L),15968-05-5,291.99199999999996,0,0,5.967200000000002,0,4.07380277804113e-08
Clc1cccc(Cl)c1-c1c(Cl)cccc1Cl,"2,2?,6,6?-PCB",-7.39,log(mol/L),-7.39,log(mol/L),-,291.99199999999996,0,0,5.967200000000002,0,4.07380277804113e-08
Clc1cccc(Cl)c1-c1c(Cl)cccc1Cl,"2,2',6,6'-PCB",-7.39,log(mol/L),-7.39,log(mol/L),15968-05-5,291.99199999999996,0,0,5.967200000000002,0,4.07380277804113e-08
c1ccc2c(c1)ccc1c3ccc4ccccc4c3[nH]c21,"13h-dibenzo(a,i)carbazole",-7.42,log(mol/L),-7.42,log(mol/L),239-64-5,267.331,0,1,5.627500000000003,0,3.8018939632056126e-08
Clc1ccc(Cl)c(-c2c(Cl)c(Cl)cc(Cl)c2Cl)c1,"2,2',3,5,5',6-PCB",-7.42,log(mol/L),-7.42,log(mol/L),52663-63-5,360.88200000000006,0,0,7.274000000000001,0,3.8018939632056126e-08
Clc1ccc(Cl)c(-c2c(Cl)c(Cl)cc(Cl)c2Cl)c1,"2,2?,3,5,5?,6-pcb",-7.42,log(mol/L),-7.42,log(mol/L),52663-63-5,360.88200000000006,0,0,7.274000000000001,0,3.8018939632056126e-08
Clc1ccc(Cl)c(-c2c(Cl)c(Cl)cc(Cl)c2Cl)c1,"2,2?,3,5,5?,6-PCB",-7.42,log(mol/L),-7.42,log(mol/L),-,360.88200000000006,0,0,7.274000000000001,0,3.8018939632056126e-08
Clc1ccc(Cl)c(-c2c(Cl)c(Cl)cc(Cl)c2Cl)c1,"2,2',3,5,5',6-PCB",-7.42,log(mol/L),-7.42,log(mol/L),-,360.88200000000006,0,0,7.274000000000001,0,3.8018939632056126e-08
Clc1ccc(-c2c(Cl)ccc(Cl)c2Cl)c(Cl)c1,"2,2',3,4,6-PCB",-7.43,log(mol/L),-7.43,log(mol/L),-,326.437,0,0,6.620600000000001,0,3.715352290971728e-08
Clc1ccccc1-c1c(Cl)cc(Cl)c(Cl)c1Cl,"2,2',3,4,6-PCB",-7.43,log(mol/L),-7.43,log(mol/L),55215-17-3,326.437,0,0,6.6206000000000005,0,3.715352290971728e-08
Clc1ccccc1-c1c(Cl)cc(Cl)c(Cl)c1Cl,"2,2?,3,4,6-pcb",-7.43,log(mol/L),-7.43,log(mol/L),55215-17-3,326.437,0,0,6.6206000000000005,0,3.715352290971728e-08
Clc1ccccc1-c1c(Cl)cc(Cl)c(Cl)c1Cl,"2,2?,3,4,6-PCB",-7.43,log(mol/L),-7.43,log(mol/L),-,326.437,0,0,6.6206000000000005,0,3.715352290971728e-08
Brc1ccc(Oc2ccc(Br)c(Br)c2)c(Br)c1,"2,3',4,4'-TetraBDE",-7.43,log(mol/L),-7.43,log(mol/L),-,485.795,1,0,6.528900000000002,0,3.715352290971728e-08
Brc1ccc(Oc2ccc(Br)c(Br)c2)c(Br)c1,"BDE-066; 2,3',4,4'-tetrabromodiphenyl ether",1.8E-5 +- 3.0E-6,g/L,-7.431,log(mol/L),189084-61-5,485.795,1,0,6.528900000000002,0,3.7068072178257595e-08
Brc1ccc(Oc2ccc(Br)cc2Br)c(Br)c1,"2,2',4,4'-Tetrabromodiphenyl ether; BDE-047",0.0153,mg/L,-7.502,log(mol/L),5436-43-1,485.795,1,0,6.528900000000002,0,3.1477483141013175e-08
Brc1ccc(Oc2ccc(Br)cc2Br)c(Br)c1,"2,2',4,4'-Tetrabromodiphenyl ether; BDE-047",1.5E-5 +- 2.0E-6,g/L,-7.51,log(mol/L),5436-43-1,485.795,1,0,6.528900000000002,0,3.090295432513592e-08
Brc1ccc(Oc2ccc(Br)cc2Br)c(Br)c1,"2,2',4,4'-tetraBDE",-7.51,log(mol/L),-7.51,log(mol/L),-,485.795,1,0,6.528900000000002,0,3.090295432513592e-08
Brc1ccc(Oc2ccc(Br)cc2Br)c(Br)c1,"2,2',4,4'-Tetrabromodiphenyl ether; BDE-047",3.04E-8,mol/L,-7.517,log(mol/L),5436-43-1,485.795,1,0,6.528900000000002,0,3.040885025676277e-08
Brc1cc(Br)c(Oc2cc(Br)c(Br)cc2Br)cc1Br,"BDE-153; 2,2',4,4',5,5'-Hexabromodiphenyl ether",2.59E-5,mmol/L,-7.587,log(mol/L),68631-49-2,643.587,1,0,8.053900000000002,0,2.588212915153093e-08
CC1CC2C3CCC4=CC(=O)C=CC4(C)C3=CCC2(C)C1C(=O)CN1CCN(c2cc(N3CCCC3)nc(N3CCCC3)n2)CC1,Tirilazad,-7.59,log(mol/L),-7.59,log(mol/L),-,624.8739999999999,8,0,5.458300000000006,0,2.5703957827688646e-08
O=C(O)C(F)(F)C(F)(F)C(F)(F)C(F)(F)C(F)(F)C(F)(F)C(F)(F)F,-,-2.02,log(mg/L),-7.637,log(mol/L),335-67-1,414.06399999999996,1,1,4.4451,1,2.3067471887200714e-08
Brc1ccc(Oc2ccc(Br)cc2Br)c(Br)c1,"2,2',4,4'-Tetrabromodiphenyl ether; BDE-047",0.0109,mg/L,-7.649,log(mol/L),5436-43-1,485.795,1,0,6.528900000000002,0,2.2438819237827663e-08
Clc1ccc(-c2c(Cl)cc(Cl)c(Cl)c2Cl)cc1Cl,"2,3,3',4,4'6-PCB",-7.66,log(mol/L),-7.66,log(mol/L),74472-42-7,360.88200000000006,0,0,7.274000000000001,0,2.1877616239495518e-08
Clc1ccc(-c2c(Cl)cc(Cl)c(Cl)c2Cl)cc1Cl,"2,3,3?,4,4?6-pcb",-7.66,log(mol/L),-7.66,log(mol/L),74472-42-7,360.88200000000006,0,0,7.274000000000001,0,2.1877616239495518e-08
Clc1ccc(-c2c(Cl)cc(Cl)c(Cl)c2Cl)c(Cl)c1Cl,"2,3,3',4,4'6-PCB",-7.66,log(mol/L),-7.66,log(mol/L),-,395.3270000000001,0,0,7.9274000000000004,0,2.1877616239495518e-08
Clc1ccc(-c2c(Cl)cc(Cl)c(Cl)c2Cl)cc1Cl,"2,3,3?,4,4?6-PCB",-7.66,log(mol/L),-7.66,log(mol/L),-,360.88200000000006,0,0,7.274000000000001,0,2.1877616239495518e-08
Clc1c(Cl)c(Cl)c(Cl)c(Cl)c1Cl,hexachlorobenzene,0.0062,mg/L,-7.662,log(mol/L),118-74-1,284.784,0,0,5.606999999999999,0,2.177709772353159e-08
Clc1ccc(Cl)c(-c2cc(Cl)c(Cl)c(Cl)c2Cl)c1,"2,2',3,4,5,5'-PCB",-7.68,log(mol/L),-7.68,log(mol/L),-,360.88200000000006,0,0,7.274000000000001,0,2.0892961308540408e-08
Clc1ccc(Cl)c(-c2cc(Cl)c(Cl)c(Cl)c2Cl)c1,"2,2?,3,4,5,5?-PCB",-7.68,log(mol/L),-7.68,log(mol/L),-,360.88200000000006,0,0,7.274000000000001,0,2.0892961308540408e-08
Clc1ccc(Cl)c(-c2cc(Cl)c(Cl)c(Cl)c2Cl)c1,"2,2?,3,4,5,5?-pcb",-7.68,log(mol/L),-7.68,log(mol/L),52712-04-6,360.88200000000006,0,0,7.274000000000001,0,2.0892961308540408e-08
Clc1ccc(Cl)c(-c2cc(Cl)c(Cl)c(Cl)c2Cl)c1,"2,2',3,4,5,5'-PCB",-7.68,log(mol/L),-7.68,log(mol/L),52712-04-6,360.88200000000006,0,0,7.274000000000001,0,2.0892961308540408e-08
OCCC(F)(F)C(F)(F)C(F)(F)C(F)(F)C(F)(F)C(F)(F)C(F)(F)C(F)(F)C(F)(F)C(F)(F)F,-,-1.96,log(mg/L),-7.711,log(mol/L),865-86-1,564.1290000000001,1,1,6.648800000000004,0,1.9453600816226615e-08
Brc1cc(Br)c(-c2c(Br)cc(Br)cc2Br)c(Br)c1,HEXABROMOBIPHENYL,0.011,mg/L,-7.756,log(mol/L),36355-01-8,627.588,0,0,7.928600000000003,0,1.7538805018417603e-08
CN(c1c(Br)cc(Br)cc1Br)c1c([N+](=O)[O-])cc([N+](=O)[O-])cc1C(F)(F)F,BROMETHALIN,0.01,mg/L,-7.762,log(mol/L),63333-35-7,577.9330000000003,5,0,6.577200000000004,0,1.7298163592151032e-08
Brc1ccc(Oc2cc(Br)c(Br)cc2Br)c(Br)c1,"2,2',4,4',5-Pentabromodiphenyl ether; BDE-099",9.4E-6 +- 8.0E-7,g/L,-7.779,log(mol/L),60348-60-9,564.691,1,0,7.291400000000002,0,1.6634126503701697e-08
Brc1ccc(Oc2cc(Br)c(Br)cc2Br)c(Br)c1,"2,2',4,4',5-pentaBDE",-7.78,log(mol/L),-7.78,log(mol/L),-,564.691,1,0,7.291400000000002,0,1.6595869074375597e-08
c1ccc2c(c1)c1cccc3ccc4cccc2c4c31,benzo(e)pyrene,-7.8,log(mol/L),-7.8,log(mol/L),-,252.31599999999997,0,0,5.737200000000003,0,1.5848931924611143e-08
c1ccc2c(c1)c1cccc3ccc4cccc2c4c31,benzo(e)pyrene,-7.8,log(mol/L),-7.8,log(mol/L),192-97-2,252.31599999999997,0,0,5.737200000000003,0,1.5848931924611143e-08
Clc1ccc(-c2ccc(Cl)c(Cl)c2Cl)c(Cl)c1,"2,3',4,4'-PCB",-7.8,log(mol/L),-7.8,log(mol/L),-,326.437,0,0,6.6206000000000005,0,1.5848931924611143e-08
Clc1ccc(-c2ccc(Cl)c(Cl)c2)c(Cl)c1,"2,3',4,4'-PCB",-7.8,log(mol/L),-7.8,log(mol/L),32598-10-0,291.99199999999996,0,0,5.967200000000001,0,1.5848931924611143e-08
Clc1ccc(-c2ccc(Cl)c(Cl)c2)c(Cl)c1,"2,3?,4,4?-PCB",-7.8,log(mol/L),-7.8,log(mol/L),-,291.99199999999996,0,0,5.967200000000001,0,1.5848931924611143e-08
Clc1ccc(-c2ccc(Cl)c(Cl)c2)c(Cl)c1,"2,3?,4,4?-pcb",-7.8,log(mol/L),-7.8,log(mol/L),32598-10-0,291.99199999999996,0,0,5.967200000000001,0,1.5848931924611143e-08
Clc1ccc(C(c2ccc(Cl)cc2)C(Cl)(Cl)Cl)cc1,"p,p'-DDT",0.0055,mg/L,-7.809,log(mol/L),50-29-3,354.491,0,0,6.495500000000002,0,1.5523870099580815e-08
Clc1ccc(-c2cc(Cl)c(Cl)c(Cl)c2Cl)cc1Cl,"2,3,3',4,4',5-PCB",-7.82,log(mol/L),-7.82,log(mol/L),-,360.88200000000006,0,0,7.274,0,1.5135612484362072e-08
Clc1ccc(-c2cc(Cl)c(Cl)c(Cl)c2Cl)cc1Cl,"2,3,3?,4,4?,5-PCB",-7.82,log(mol/L),-7.82,log(mol/L),-,360.88200000000006,0,0,7.274,0,1.5135612484362072e-08
Clc1ccc(-c2cc(Cl)c(Cl)c(Cl)c2Cl)cc1Cl,"2,3,3',4,4',5-PCB",-7.82,log(mol/L),-7.82,log(mol/L),38380-08-4,360.88200000000006,0,0,7.274,0,1.5135612484362072e-08
Clc1ccc(-c2cc(Cl)c(Cl)c(Cl)c2Cl)cc1Cl,"2,3,3?,4,4?,5-pcb",-7.82,log(mol/L),-7.82,log(mol/L),38380-08-4,360.88200000000006,0,0,7.274,0,1.5135612484362072e-08
c1cc2c3c(c4ccc5ccccc5c4cc3c1)CC2,Cholanthrene,-7.85,log(mol/L),-7.85,log(mol/L),-,254.33199999999994,0,0,5.244800000000003,0,1.4125375446227554e-08
c1ccc2c(c1)ccc1c2ccc2c3ccccc3ccc21,Picene,-7.87,log(mol/L),-7.87,log(mol/L),-,278.354,0,0,6.299400000000004,0,1.3489628825916533e-08
BrC1CCC(Br)C(Br)CCC(Br)C(Br)CCC1Br,"1,2,5,6,9,10-HEXABROMOCYCLODODECANE",0.0086,mg/L,-7.873,log(mol/L),3194-55-6,641.6999999999999,0,0,6.921600000000004,0,1.3396766874259345e-08
Clc1ccc(Cl)c(-c2cc(Cl)c(Cl)cc2Cl)c1,"2,2?,4,5,5?-PCB",-7.89,log(mol/L),-7.89,log(mol/L),-,326.437,0,0,6.620600000000001,0,1.288249551693135e-08
Clc1ccc(Cl)c(-c2cc(Cl)c(Cl)cc2Cl)c1,"2,2',4,5,5'-pcb",-7.89,log(mol/L),-7.89,log(mol/L),37680-73-2,326.437,0,0,6.620600000000001,0,1.288249551693135e-08
Clc1ccc(Cl)c(-c2cc(Cl)c(Cl)cc2Cl)c1,"2,2?,4,5,5?-pcb",-7.89,log(mol/L),-7.89,log(mol/L),37680-73-2,326.437,0,0,6.620600000000001,0,1.288249551693135e-08
Brc1ccc(Oc2ccc(Br)c(Br)c2)cc1Br,"BDE-077; 3,3',4,4'-tetrabromodiphenyl ether",6.0E-6 +- 1.0E-7,g/L,-7.908,log(mol/L),93703-48-1,485.795,1,0,6.528900000000002,0,1.2359474334445095e-08
Clc1ccc(Cl)c(-c2ccc(Cl)c(Cl)c2Cl)c1,"2,2',3,4,5'-pcb",-7.91,log(mol/L),-7.91,log(mol/L),38380-02-8,326.437,0,0,6.620600000000001,0,1.2302687708123811e-08
Clc1ccc(Cl)c(-c2ccc(Cl)c(Cl)c2Cl)c1,"2,2?,3,4,5?-PCB",-7.91,log(mol/L),-7.91,log(mol/L),-,326.437,0,0,6.620600000000001,0,1.2302687708123811e-08