SMILES,NAME,Water solubility,UNIT {Water solubility},Solubility_log(mol/L),UNIT {Water solubility}.1,CASRN
C1=CC(OC(F)F)=CC=C1C(C(C)C)C(=O)OC(C#N)C2=CC=CC(OC3=CC=C(Br)C=C3)=C2,ZXI 8901,0.00356,mg/L,-8.173,log(mol/L),160791-64-0
C(=O)(C1=CC(=C(C(I)=C1)OCCN(CC)CC)I)C2=C(OC3=C2C=CC=C3)CCCC,Amiodarone,0.0067,?M/L,-8.174,log(mol/L),-
CC1(C)C(C=C(Cl)C(F)(F)F)C1C(=O)OC(C#N)C2=CC=CC(OC3=CC=CC=C3)=C2,Cyhalothrin,-8.176,log(mol/L),-8.176,log(mol/L),-
C12=C3C4=CC=C1C5=C(C=C2C=CC3=CC=C4)C=CC=C5,benzo(a)pyrene,-8.19,log(mol/L),-8.19,log(mol/L),-
C=12C3=C4C=CC=C3C=CC1C=C5C(C=CC=C5)=C2C=C4,benzo(a)pyrene,-8.19,log(mol/L),-8.19,log(mol/L),50-32-8
BrC1=C(C=C(C=C1Br)OC2=C(C=C(C(=C2)Br)Br)Br)Br,"Benzene, 1,1'-oxybis-, hexabromo deriv.",0.00408,mg/L,-8.198,log(mol/L),36483-60-0
C=12C=3C=4C=CC=CC4C1C=CC=C2C=5C=CC=CC5C3,benzo(b)fluoranthene,-8.23,log(mol/L),-8.23,log(mol/L),205-99-2
C12=CC=CC3=C1C(=CC4=C2C=CC=C4)C5=C3C=CC=C5,benzo(b)fluoranthene,-8.23,log(mol/L),-8.23,log(mol/L),-
C1=CC=C2C(=C1)C=3C=CC=C4C3C2=CC=5C=CC=CC54,benzo(b)fluoranthene,-8.23,log(mol/L),-8.23,log(mol/L),-
C1(=C(C(=C(C(=C1Br)Br)Br)Br)Br)Br,HBB,-8.26,log(mol/L),-8.26,log(mol/L),-
C1(=C(C(=C(C(=C1Br)Br)Br)Br)Br)Br,HBB; hexabromobenzene,3.0E-6 +- 5.0E-7,g/L,-8.264,log(mol/L),87-82-1
ClC1=C(Cl)C(Cl)=CC=C1C2=C(Cl)C(Cl)=C(Cl)C=C2Cl,"2,2?,3,3?,4,4?,6-pcb",-8.3,log(mol/L),-8.3,log(mol/L),52663-71-5
ClC1=C(C(=C(C=C1Cl)Cl)C2=C(C(=C(C=C2)Cl)Cl)Cl)Cl,"2,2?,3,3?,4,4?,6-PCB",-8.3,log(mol/L),-8.3,log(mol/L),-
ClC1=C(Cl)C(Cl)=CC=C1C2=C(Cl)C(Cl)=C(Cl)C=C2Cl,"2,2',3,3',4,4',6-pcb",-8.3,log(mol/L),-8.3,log(mol/L),52663-71-5
ClC1=C(C(=CC=C1Cl)C2=C(C=C(C(=C2)Cl)Cl)Cl)Cl,"2,2?,3,4,4?,5?-PCB",-8.32,log(mol/L),-8.32,log(mol/L),-
ClC1=C(Cl)C=C(Cl)C(C2=CC=C(Cl)C(Cl)=C2Cl)=C1,"2,2?,3,4,4?,5?-pcb",-8.32,log(mol/L),-8.32,log(mol/L),35065-28-2
ClC1=C(Cl)C=C(Cl)C(C2=CC=C(Cl)C(Cl)=C2Cl)=C1,"2,2',3,4,4',5'-pcb",-8.32,log(mol/L),-8.32,log(mol/L),35065-28-2
C(CCCCCCCCCCCCC)CCCCCCCCCCCC,hexacosane,-8.33,log(mol/L),-8.33,log(mol/L),-
CCCCCCCCCCCCCCCCCCCCCCCCCC,hexacosane,-8.334,log(mol/L),-8.334,log(mol/L),-
C1=CC(=C(C=C1Br)Br)OC2=CC(=C(C=C2Br)Br)Br,"2,2',4,4',5-Pentabromodiphenyl ether; BDE-099",0.0024,mg/L,-8.372,log(mol/L),60348-60-9
CCCCCCCCCCCCCCCC,Hexadecane,-8.4,log(mol/L),-8.4,log(mol/L),-
FC(F)(F)C1=CC=CC(C(C2=CC=CC=C2)(N3C=NC=N3)C4=CC=CC=C4)=C1,fluotrimazole,-8.4,log(mol/L),-8.4,log(mol/L),31251-03-3
CCCCCCCCCCCCCCCCCCO,1-Octadecanol,-8.4,log(mol/L),-8.4,log(mol/L),-
BrC(=CC1C(C1C(=O)OC(C2=CC(=CC=C2)OC3=CC=CC=C3)C#N)(C)C)Br,Deltamethrin,-8.4,log(mol/L),-8.4,log(mol/L),-
FC(F)(F)C1=CC=CC(C(N2N=CN=C2)(C3=CC=CC=C3)C4=CC=CC=C4)=C1,fluotrimazole,-8.4,log(mol/L),-8.4,log(mol/L),31251-03-3
CC1(C)C(C=C(Br)Br)C1C(=O)OC(C#N)C2=CC=CC(OC3=CC=CC=C3)=C2,Deltamethrin,-8.402,log(mol/L),-8.402,log(mol/L),-
ClC1=C(C(=CC(=C1Cl)C2=C(C(=CC=C2)Cl)Cl)Cl)Cl,"2,2?,3,3?,4,5-PCB",-8.42,log(mol/L),-8.42,log(mol/L),-
ClC1=C(Cl)C(Cl)=C(Cl)C(C2=CC=CC(Cl)=C2Cl)=C1,"2,2?,3,3?,4,5-pcb",-8.42,log(mol/L),-8.42,log(mol/L),55215-18-4
ClC1=C(Cl)C(Cl)=C(Cl)C(C2=CC=CC(Cl)=C2Cl)=C1,"2,2',3,3',4,5-pcb",-8.42,log(mol/L),-8.42,log(mol/L),55215-18-4
C=12C=3C4=C(C=C5C=CC=CC5=C4)C1C=CC=C2C=CC3,benzo(k)fluoranthene,-8.49,log(mol/L),-8.49,log(mol/L),207-08-9
C12=C3C=CC=C1C=CC=C2C4=C3C=C5C(=C4)C=CC=C5,benzo(k)fluoranthene,-8.49,log(mol/L),-8.49,log(mol/L),-
C1=CC=C2C=C3C=4C=CC=C5C=CC=C(C3=CC2=C1)C45,benzo(k)fluoranthene,-8.49,log(mol/L),-8.49,log(mol/L),-
ClC1=C(C=C(C(=C1)Cl)C2=C(C=C(C(=C2)Cl)Cl)Cl)Cl,"2,2?,4,4?5,5?-PCB",-8.56,log(mol/L),-8.56,log(mol/L),-
ClC1=CC(Cl)=C(C=C1Cl)C2=CC(Cl)=C(Cl)C=C2Cl,"2,2',4,4',5,5'-PCB",-8.56,log(mol/L),-8.56,log(mol/L),-
ClC1=CC(Cl)=C(Cl)C=C1C2=CC(Cl)=C(Cl)C=C2Cl,"2,2?,4,4?5,5?-pcb",-8.56,log(mol/L),-8.56,log(mol/L),35065-27-1
ClC1=CC(Cl)=C(Cl)C=C1C2=CC(Cl)=C(Cl)C=C2Cl,"2,2',4,4'5,5'-pcb",-8.56,log(mol/L),-8.56,log(mol/L),35065-27-1
ClC1=C(C=C(C=C1C2=C(C=C(C(=C2)Cl)Cl)Cl)Cl)Cl,"2,2?,3,3?,5?,6-PCB",-8.6,log(mol/L),-8.6,log(mol/L),-
C=12C=C3C=C4C=CC=CC4=CC3=CC1C=CC=C2,naphthacene,-8.6,log(mol/L),-8.6,log(mol/L),92-24-0
ClC1=C(C=C(C(=C1C2=C(C(=CC=C2)Cl)Cl)Cl)Cl)Cl,"2,2',3,3',5,6-PCB",-8.6,log(mol/L),-8.6,log(mol/L),-
CCOC1=CC=C(C=C1)C(C)(C)COCC2=CC=CC(OC3=CC=CC=C3)=C2,Etofenprox,-8.6,log(mol/L),-8.6,log(mol/L),-
ClC1=C(Cl)C=C(C(=C1C2=C(Cl)C(Cl)=CC=C2)Cl)Cl,"2,2?,3,3?,5,6-pcb",-8.6,log(mol/L),-8.6,log(mol/L),52704-70-8
ClC1=C(C=C(C(=C1C2=C(C(=CC=C2)Cl)Cl)Cl)Cl)Cl,"2,2',3,3',5,6-PCB",-8.6,log(mol/L),-8.6,log(mol/L),52704-70-8
C12=CC3=C(C=C1C=C4C(=C2)C=CC=C4)C=CC=C3,naphthacene,-8.6,log(mol/L),-8.6,log(mol/L),-
ClC1=CC=CC(=C1Cl)C2=C(Cl)C(Cl)=CC(Cl)=C2Cl,"2,2',3,3',5,6-PCB",-8.6,log(mol/L),-8.6,log(mol/L),-
C1=CC=C2C=C3C=C4C=CC=CC4=CC3=CC2=C1,Napthacene,-8.6,log(mol/L),-8.6,log(mol/L),-
ClC1=CC=C(Cl)C(=C1Cl)C2=C(Cl)C=CC(Cl)=C2Cl,"2,2?,3,3?,6,6?-pcb",-8.65,log(mol/L),-8.65,log(mol/L),38411-22-2
ClC1=C(C=CC(=C1C2=C(C=C(C(=C2)Cl)Cl)Cl)Cl)Cl,"2,2?,3,3?,6,6?-PCB",-8.65,log(mol/L),-8.65,log(mol/L),-
ClC1=CC=C(Cl)C(=C1Cl)C2=C(Cl)C=CC(Cl)=C2Cl,"2,2',3,3',6,6'-pcb",-8.65,log(mol/L),-8.65,log(mol/L),38411-22-2
ClC1=C(C=CC(=C1C2=C(C(=CC=C2Cl)Cl)Cl)Cl)Cl,"1,2,4-trichloro-3-(2,3,6-trichlorophenyl)benzene",-8.65,log(mol/L),-8.65,log(mol/L),-
C12=CC3=C(C=C1C=CC4=C2C=CC=C4)C5=C(C=C3)C=CC=C5,"dibenz(a,h)anthracene",-8.66,log(mol/L),-8.66,log(mol/L),-
C=12C=3C=CC=CC3C=CC1C=C4C(C=CC5=C4C=CC=C5)=C2,"dibenz(a,h)anthracene",-8.66,log(mol/L),-8.66,log(mol/L),53-70-3
BrC1=C(OC2=CC(Br)=C(Br)C=C2Br)C(Br)=C(Br)C(Br)=C1,"2,2',3,4,4',5',6-heptaBDE",-8.68,log(mol/L),-8.68,log(mol/L),-
BrC1=C(OC2=CC(Br)=C(Br)C=C2Br)C(Br)=C(Br)C(Br)=C1,"BDE-183; 2,2',3,4,4',5',6-heptabromodiphenyl ether",1.5E-6 +- 3.0E-7,g/L,-8.683,log(mol/L),207122-16-5
C1=CC=C2C(=C1)C=C3C=CC=4C=CC=C5C=CC2=C3C45,benzo(a)pyrene,-8.699,log(mol/L),-8.699,log(mol/L),-
ClC1=C(C=C(C=C1C2=C(C=C(C=C2Cl)Cl)Cl)Cl)Cl,"2,2?,4,4?,6,6?-PCB",-8.71,log(mol/L),-8.71,log(mol/L),-
ClC1=CC(Cl)=C(C(Cl)=C1)C2=C(Cl)C=C(Cl)C=C2Cl,"2,2',4,4',6,6'-PCB",-8.71,log(mol/L),-8.71,log(mol/L),-
ClC1=CC(Cl)=C(C2=C(C=C(C=C2Cl)Cl)Cl)C(Cl)=C1,"2,2?,4,4?,6,6?-pcb",-8.71,log(mol/L),-8.71,log(mol/L),33979-03-2
ClC1=C(C(=CC(=C1)Cl)Cl)C2=C(C=C(C=C2Cl)Cl)Cl,"2,2',4,4',6,6'-PCB",-8.71,log(mol/L),-8.71,log(mol/L),-
ClC1=CC(Cl)=C(C2=C(C=C(C=C2Cl)Cl)Cl)C(Cl)=C1,"2,2',4,4',6,6'-PCB",-8.71,log(mol/L),-8.71,log(mol/L),33979-03-2
C1=2C=CC=C3C=CC=C(C=4C5=C(C=CC=C15)C=CC4)C23,perylene,-8.8,log(mol/L),-8.8,log(mol/L),198-55-0
C12=C3C=CC=C1C=CC=C2C4=CC=CC5=CC=CC3=C45,perylene,-8.8,log(mol/L),-8.8,log(mol/L),-
C1=CC=2C=CC=C3C=4C=CC=C5C=CC=C(C(=C1)C23)C54,perylene,-8.804,log(mol/L),-8.804,log(mol/L),-
BrC1=CC(OC2=C(Br)C=C(Br)C=C2Br)=C(Br)C=C1Br,"BDE-154; 2,2',4,4',5,6'-hexabromodiphenyl ether",8.7E-7 +- 9.0E-8,g/L,-8.869,log(mol/L),207122-15-4
C1=C(C(=CC(=C1Br)Br)Br)OC2=CC(=C(C=C2Br)Br)Br,"BDE-153; 2,2',4,4',5,5'-Hexabromodiphenyl ether",8.7E-7 +- 6.0E-8,g/L,-8.869,log(mol/L),68631-49-2
BrC1=CC(OC2=C(Br)C=C(Br)C=C2Br)=C(Br)C=C1Br,"2,2',4,4',5,6'-hexaBDE",-8.87,log(mol/L),-8.87,log(mol/L),-
C1=C(C(=CC(=C1Br)Br)Br)OC2=CC(=C(C=C2Br)Br)Br,"2,2',4,4',5,5'-hexaBDE",-8.87,log(mol/L),-8.87,log(mol/L),-
ClC1=C(C2=CC(Cl)=CC=C2Cl)C(Cl)=C(Cl)C(Cl)=C1Cl,"2,2',3,4,5,5',6-PCB",-8.94,log(mol/L),-8.94,log(mol/L),52712-05-7
ClC1=C(C2=CC(Cl)=CC=C2Cl)C(Cl)=C(Cl)C(Cl)=C1Cl,"2,2?,3,4,5,5?,6-pcb",-8.94,log(mol/L),-8.94,log(mol/L),52712-05-7
ClC1=CC=C(Cl)C(=C1)C2=C(Cl)C(Cl)=C(Cl)C(Cl)=C2Cl,"2,2',3,4,5,5',6-PCB",-8.94,log(mol/L),-8.94,log(mol/L),-
ClC1=C(C(=C(C(=C1Cl)Cl)C2=C(C=CC(=C2)Cl)Cl)Cl)Cl,"2,2?,3,4,5,5?,6-PCB",-8.94,log(mol/L),-8.94,log(mol/L),-
C1=CC=2C=CC=3C=CC=4C=CC=5C=CC=C6C(=C1)C2C3C4C56,Benzo[ghi]perylene,-9.018,log(mol/L),-9.018,log(mol/L),-
C12=C3C=CC4=CC=CC(=C14)C5=CC=CC6=C5C2=C(C=C3)C=C6,benzo(ghi)perylene,-9.03,log(mol/L),-9.03,log(mol/L),-
C12=C3C=CC4=C2C(C=5C=6C1=C(C=C3)C=CC6C=CC5)=CC=C4,benzo(ghi)perylene,-9.03,log(mol/L),-9.03,log(mol/L),191-24-2
ClC1=C(C=C(C(=C1C2=C(C(=CC(=C2Cl)Cl)Cl)Cl)Cl)Cl)Cl,"2,2?,3,3?,5,5?,6,6?-PCB",-9.15,log(mol/L),-9.15,log(mol/L),-
ClC1=C(Cl)C=C(Cl)C(Cl)=C1C2=C(Cl)C(Cl)=CC(Cl)=C2Cl,"2,2',3,3',5,5',6,6'-PCB",-9.15,log(mol/L),-9.15,log(mol/L),2136-99-4
ClC1=C(Cl)C=C(Cl)C(Cl)=C1C2=C(Cl)C(Cl)=CC(Cl)=C2Cl,"2,2?,3,3?,5,5?,6,6?-pcb",-9.15,log(mol/L),-9.15,log(mol/L),2136-99-4
ClC1=CC(Cl)=C(Cl)C(=C1Cl)C2=C(Cl)C(Cl)=CC(Cl)=C2Cl,"2,2',3,3',5,5',6,6'-PCB",-9.15,log(mol/L),-9.15,log(mol/L),-
ClC1=C(Cl)C(Cl)=C(Cl)C(C2=CC(Cl)=C(Cl)C(Cl)=C2Cl)=C1,"2,2',3,3',4,4',5,5'-PCB",-9.16,log(mol/L),-9.16,log(mol/L),35694-08-7
ClC1=C(C(=CC(=C1Cl)C2=C(C(=C(C(=C2)Cl)Cl)Cl)Cl)Cl)Cl,"2,2?,3,3?,4,4?,5,5?-PCB",-9.16,log(mol/L),-9.16,log(mol/L),-
ClC1=C(Cl)C(Cl)=C(Cl)C(C2=CC(Cl)=C(Cl)C(Cl)=C2Cl)=C1,"2,2?,3,3?,4,4?,5,5?-pcb",-9.16,log(mol/L),-9.16,log(mol/L),35694-08-7
ClC1=CC(=C(Cl)C(Cl)=C1Cl)C2=CC(Cl)=C(Cl)C(Cl)=C2Cl,"2,2',3,3',4,4',5,5'-PCB",-9.16,log(mol/L),-9.16,log(mol/L),-
C12=C3C=CC4=C1C5=C(C=CC6=C5C7=C2C(=CC=C7C=C6)C=C3)C=C4,Coronene,-9.33,log(mol/L),-9.33,log(mol/L),-
C1=CC=2C=CC=3C=CC=4C=CC=5C=CC=6C=CC1=C7C2C3C4C5C67,Coronene,-9.332,log(mol/L),-9.332,log(mol/L),-
BrC1=C(C=C(C(=C1C2=C(C(=CC(=C2Br)Br)Br)Br)Br)Br)Br,"1,1'-Biphenyl, ar,ar,ar,ar,ar',ar',ar',ar'-octab",3.5E-4,mg/L,-9.351,log(mol/L),27858-07-7
C1(=C(C(=C(C(Br)=C1Br)Br)Br)Br)Br,hexabromobenzene,1.6E-4,mg/L,-9.537,log(mol/L),87-82-1
BrC1=CC(=C(C=C1C2=C(C=CC(=C2)Br)Br)Br)Br,"2,2',4,5,5'-PENTABROMOBIPHENYL",1.03E-4,mg/L,-9.726,log(mol/L),67888-96-4
O(C1=C(C(=C(C(Br)=C1Br)Br)Br)Br)C2=C(C(=C(C(Br)=C2Br)Br)Br)Br,Decabromodiphenyl ether,1.0E-4,mg/L,-9.982,log(mol/L),1163-19-5
C1=C(C(=CC(=C1Br)Br)Br)OC2=CC(=C(C=C2Br)Br)Br,"BDE-153; 2,2',4,4',5,5'-Hexabromodiphenyl ether",5.04E-5 +- 2.7E-6,mg/L,-10.11,log(mol/L),68631-49-2
ClC1=C(C(=C(C(=C1Cl)Cl)C2=C(C(=C(C(=C2)Cl)Cl)Cl)Cl)Cl)Cl,"2,2?,3,3?,4,4?,5,5?,6-PCB",-10.26,log(mol/L),-10.26,log(mol/L),-
ClC1=C(C2=CC(Cl)=C(Cl)C(Cl)=C2Cl)C(Cl)=C(Cl)C(Cl)=C1Cl,"2,2?,3,3?,4,4?,5,5?,6-pcb",-10.26,log(mol/L),-10.26,log(mol/L),40186-72-9
ClC1=C(C2=CC(Cl)=C(Cl)C(Cl)=C2Cl)C(Cl)=C(Cl)C(Cl)=C1Cl,"2,2',3,3',4,4',5,5',6-pcb",-10.26,log(mol/L),-10.26,log(mol/L),40186-72-9
ClC1=C(Cl)C(Cl)=C(Cl)C(Cl)=C1C2=C(Cl)C(Cl)=CC(Cl)=C2Cl,"2,2',3,3',4,5,5',6,6'-pcb",-10.41,log(mol/L),-10.41,log(mol/L),52663-77-1
ClC1=C(C(=C(C(=C1Cl)Cl)C2=C(C(=CC(=C2Cl)Cl)Cl)Cl)Cl)Cl,"2,2?,3,3?,4,5,5?,6,6?-PCB",-10.41,log(mol/L),-10.41,log(mol/L),-
ClC1=C(Cl)C(Cl)=C(Cl)C(Cl)=C1C2=C(Cl)C(Cl)=CC(Cl)=C2Cl,"2,2?,3,3?,4,5,5?,6,6?-pcb",-10.41,log(mol/L),-10.41,log(mol/L),52663-77-1
ClC1=C(Cl)C(Cl)=C(C(Cl)=C1Cl)C2=C(Cl)C(Cl)=C(Cl)C(Cl)=C2Cl,"2,2',3,3',4,4',5,5',6,6'-PCB",-11.6,log(mol/L),-11.6,log(mol/L),-
ClC1=C(C(Cl)=C(C2=C(C(Cl)=C(C(Cl)=C2Cl)Cl)Cl)C(Cl)=C1Cl)Cl,"2,2?,3,3?,4,4?,5,5?,6,6?-pcb",-11.62,log(mol/L),-11.62,log(mol/L),2051-24-3
ClC1=C(C(Cl)=C(C2=C(C(Cl)=C(C(Cl)=C2Cl)Cl)Cl)C(Cl)=C1Cl)Cl,"2,2',3,3',4,4',5,5',6,6'-PCB",-11.62,log(mol/L),-11.62,log(mol/L),2051-24-3
ClC1=C(C(=C(C(=C1Cl)Cl)C2=C(C(=C(C(=C2Cl)Cl)Cl)Cl)Cl)Cl)Cl,"2,2?,3,3?,4,4?,5,5?,6,6?-PCB",-11.62,log(mol/L),-11.62,log(mol/L),-
BrC1=CC(=C(C=C1OC2=C(C=C(C=C2)Br)Br)Br)Br,DE 71,9.0E-7,mg/L,-11.8,log(mol/L),32534-81-9
C1=CC(=C(C=C1Br)Br)OC2=C(C(=C(C=C2)Br)Br)Br,"2,2',3,4,4'-Pentabromodiphenyl ether; BDE-085",9.0E-7,mg/L,-11.8,log(mol/L),182346-21-0
C1=CC(=C(C=C1Br)Br)OC2=CC(=C(C=C2Br)Br)Br,"2,2',4,4',5-Pentabromodiphenyl ether; BDE-099",9.0E-7,mg/L,-11.8,log(mol/L),60348-60-9
BrC1=C(OC2=CC=CC=C2)C(Br)=C(Br)C(Br)=C1Br,"BDE-116; 2,3,4,5,6-pentabromodiphenyl ether",9.0E-7,mg/L,-11.8,log(mol/L),-
BrC1=CC=C(OC2=C(Br)C=C(Br)C=C2Br)C=C1Br,"BDE-119; 2,3',4,4',6-pentabromodiphenyl ether",9.0E-7,mg/L,-11.8,log(mol/L),189084-66-0