SMILES,CASRN,EXTERNALID,N,NAME,ARTICLEID,PUBMEDID,PAGE,TABLE,Solubility_log(mol/L),UNIT {Water solubility},"Water solubility {measured, converted}",UNIT {Water solubility}.1,Dataset,Temperature,UNIT {Temperature},Ionic strength,UNIT {Ionic strength},comment (chemical),source,pH,UNIT {pH}
CCOP(=S)(OCC)SCN1N=NC2=C(C=CC=C2)C1=O,2642-71-9,-,-,-,A5334,-,-,-,1.021189,log(mg/L),4.517,-log(M),,,-,,-,,,,-
CN1C(=O)NN(C1=O)C2=CC=CC=C2,14500-23-3,-,-,-,A5334,-,-,-,2.30103,log(mg/L),2.98,-log(M),,,-,,-,,,,-
CCOP(=S)(OCC)OC1=NN(C=N1)C2=CC=CC=C2,24017-47-8,-,-,-,A5334,-,-,-,1.591065,log(mg/L),3.905,-log(M),,,-,,-,,,,-
C1CCC(CC1)[Sn](C2CCCCC2)(C3CCCCC3)N4C=NC=N4,41083-11-8,-,-,-,A5334,-,-,-,-0.9208187,log(mg/L),6.561,-log(M),,,-,,-,,,,-
CC1=C2N3C=NN=C3SC2=CC=C1,41814-78-2,-,-,-,A5334,-,-,-,3.20412,log(mg/L),2.073,-log(M),,,-,,-,,,,-
CCOP(=S)(OCC)OC1=NN(C(C)C)C(Cl)=N1,42509-80-8,-,-,-,A5334,-,-,-,1.838849,log(mg/L),3.658,-log(M),,,-,,-,,,,-
CC(C)(C)C(=O)C(OC1=CC=C(Cl)C=C1)N2C=NC=N2,43121-43-3,-,-,-,A5334,-,-,-,1.854306,log(mg/L),3.614,-log(M),,,-,,-,,,,-
CC(C)(C)C(O)C(OC1=CC=C(C=C1)C2=CC=CC=C2)N3C=NC=N3,55179-31-2,-,-,-,A5334,-,-,-,0.69897,log(mg/L),4.829,-log(M),,,-,,-,,,,-
CC(C)(C)C(O)C(OC1=CC=C(Cl)C=C1)N2C=NC=N2,55219-65-3,-,-,-,A5334,-,-,-,2.079181,log(mg/L),3.392,-log(M),,,-,,-,,,,-
ClC1=CC(Cl)=C(C=C1)C2(CN3C=NC=N3)OCCO2,60207-31-0,-,-,-,A5334,-,-,-,2.477121,log(mg/L),3.0,-log(M),,,-,,-,,,,-
CCCC1COC(CN2C=NC=N2)(O1)C3=C(Cl)C=C(Cl)C=C3,60207-90-1,-,-,-,A5334,-,-,-,2.041393,log(mg/L),3.493,-log(M),,,-,,-,,,,-
CCC1COC(CN2C=NC=N2)(O1)C3=C(Cl)C=C(Cl)C=C3,60207-93-4,-,-,-,A5334,-,-,-,1.90309,log(mg/L),3.613,-log(M),,,-,,-,,,,-
CCCC(CN1C=NC=N1)C2=C(Cl)C=C(Cl)C=C2,66246-88-6,-,-,-,A5334,-,-,-,1.863323,log(mg/L),3.59,-log(M),,,-,,-,,,,-
ClC1=CC(Cl)=C(OCC#C)C=C1N2N=C3CCCCN3C2=O,68049-83-2,-,-,-,A5334,-,-,-,1.20412,log(mg/L),4.325,-log(M),,,-,,-,,,,-
CC(C)(C)C(O)C(CC1=C(Cl)C=C(Cl)C=C1)N2C=NC=N2,75736-33-3,-,-,-,A5334,-,-,-,0.9542425,log(mg/L),4.562,-log(M),,,-,,-,,,,-
OC(CN1C=NC=N1)(C2=CC=C(F)C=C2)C3=CC=CC=C3F,76674-21-0,-,-,-,A5334,-,-,-,2.113943,log(mg/L),3.365,-log(M),,,-,,-,,,,-
CCCCC(O)(CN1C=NC=N1)C2=C(Cl)C=C(Cl)C=C2,79983-71-4,-,-,-,A5334,-,-,-,1.230449,log(mg/L),4.267,-log(M),,,-,,-,,,,-
CC(C)(C)C(C(N1C=NC=N1)OC2=CC=C(C=C2)Cl)O,82200-72-4,-,-,-,A5334,-,-,-,1.518514,log(mg/L),3.952,-log(M),,,-,,-,,,,-
CC(C)(C)C(O)C(=CC1=CC=C(Cl)C=C1)N2C=NC=N2,83657-17-4,-,-,-,A5334,-,-,-,0.924796,log(mg/L),4.54,-log(M),,,-,,-,,,,-
CC(C)(C)C(O)C(=CC1=CC=C(Cl)C=C1)N2C=NC=N2,83657-22-1,-,-,-,A5334,-,-,-,0.924796,log(mg/L),4.54,-log(M),,,-,,-,,,,-
CC(C)(C)C(O)C(=CC1=C(Cl)C=C(Cl)C=C1)N2C=NC=N2,83657-24-3,-,-,-,A5334,-,-,-,0.60206,log(mg/L),4.911,-log(M),,,-,,-,,,,-
ClC1=CC=C(CSC(CN2C=NC=N2)=NC3=CC=C(Cl)C=C3Cl)C=C1,86598-92-7,-,-,-,A5334,-,-,-,0.2304489,log(mg/L),5.384,-log(M),,,-,,-,,,,-
CCCCC(CN1C=NC=N1)(C#N)C2=CC=C(Cl)C=C2,88671-89-0,-,-,-,A5334,-,-,-,2.152288,log(mg/L),3.308,-log(M),,,-,,-,,,,-
CC(C)(C)C(C(N1C=NC=N1)OC2=CC=C(C=C2)Cl)O,89482-17-7,-,-,-,A5334,-,-,-,1.792392,log(mg/L),3.679,-log(M),,,-,,-,,,,-
CC(C1CC1)C(O)(CN2C=NC=N2)C3=CC=C(Cl)C=C3,94361-06-5,-,-,-,A5334,-,-,-,2.146128,log(mg/L),3.319,-log(M),,,-,,-,,,,-
CC1=NC2=NC(=NN2C=C1)S(=O)(=O)NC3=C(F)C=CC=C3F,98967-40-9,-,-,-,A5334,-,-,-,1.690196,log(mg/L),3.822,-log(M),,,-,,-,,,,-
CCOC(=O)C1=NN(C(=N1)C(Cl)(Cl)Cl)C2=C(Cl)C=C(Cl)C=C2,103112-35-2,-,-,-,A5334,-,-,-,-0.04575749,log(mg/L),5.652,-log(M),,,-,,-,,,,-
CC(C)(C)C(O)(CCC1=CC=C(Cl)C=C1)CN2C=NC=N2,107534-96-3,-,-,-,A5334,-,-,-,1.556303,log(mg/L),3.932,-log(M),,,-,,-,,,,-
CCOC(=O)CSC1=NC(=NN1C(=O)N(C)C)C(C)(C)C,112143-82-5,-,-,-,A5334,-,-,-,2.636488,log(mg/L),2.861,-log(M),,,-,,-,,,,-
FC(F)C(F)(F)OCC(CN1C=NC=N1)C2=C(Cl)C=C(Cl)C=C2,112281-77-3,-,-,-,A5334,-,-,-,2.193125,log(mg/L),3.378,-log(M),,,-,,-,,,,-
ClC1=CC=C(CCC(CN2C=NC=N2)(C#N)C3=CC=CC=C3)C=C1,114369-43-6,-,-,-,A5334,-,-,-,-0.69897,log(mg/L),6.226,-log(M),,,-,,-,,,,-
ClC1=CC(Cl)=C(C=C1)C2(CN3C=NC=N3)CC(Br)CO2,116255-48-2,-,-,-,A5334,-,-,-,1.69897,log(mg/L),3.877,-log(M),,,-,,-,,,,-
NC(=O)C1=NN(C(=N1)C2=CC=CC=C2)C3=CC(COCC(F)(F)C(F)(F)F)=C(Cl)C=C3,119126-15-7,-,-,-,A5334,-,-,-,0.0,log(mg/L),5.663,-log(M),,,-,,-,,,,-
CC1COC(CN2C=NC=N2)(O1)C3=C(Cl)C=C(OC4=CC=C(Cl)C=C4)C=C3,119446-68-3,-,-,-,A5334,-,-,-,1.176091,log(mg/L),4.433,-log(M),,,-,,-,,,,-
CC1=NN(C(=O)N1C(F)F)C2=C(Cl)C=C(Cl)C(NS(C)(=O)=O)=C2,122836-35-5,-,-,-,A5334,-,-,-,2.892095,log(mg/L),2.696,-log(M),,,-,,-,,,,-
CC1(C)CCC(CC2=CC=C(Cl)C=C2)C1(O)CN3C=NC=N3,125116-23-6,-,-,-,A5334,-,-,-,1.176091,log(mg/L),4.329,-log(M),,,-,,-,,,,-
CC(C)C1CCC(CC2=CC=C(Cl)C=C2)C1(O)CN3C=NC=N3,125225-28-7,-,-,-,A5334,-,-,-,0.8407332,log(mg/L),4.683,-log(M),,,-,,-,,,,-
CCN(CC)C(=O)N1C=NC(=N1)S(=O)(=O)C2=C(C)C=C(C)C=C2C,125306-83-4,-,-,-,A5334,-,-,-,0.39794,log(mg/L),5.147,-log(M),,,-,,-,,,,-
CCOC(=O)C(Cl)CC1=CC(N2N=C(C)N(C(F)F)C2=O)=C(F)C=C1Cl,128639-02-1,-,-,-,A5334,-,-,-,1.342423,log(mg/L),4.273,-log(M),,,-,,-,,,,-
OC1(CCCCCC1N2C=NC=N2)C3=CC=C(Cl)C=C3,129586-32-9,-,-,-,A5334,-,-,-,2.09691,log(mg/L),3.368,-log(M),,,-,,-,,,,-
CC1(C)CCC(=CC2=CC=C(Cl)C=C2)C1(O)CN3C=NC=N3,131983-72-7,-,-,-,A5334,-,-,-,0.845098,log(mg/L),4.657,-log(M),,,-,,-,,,,-
COC1=CC(OC)=NC2=NC(=NN12)S(=O)(=O)NC3=C(Cl)C(C)=CC=C3Cl,139528-85-1,-,-,-,A5334,-,-,-,2.30103,log(mg/L),3.32,-log(M),,,-,,-,,,,-
CCOC1=NC(F)=CC2=NC(=NN12)S(=O)(=O)NC3=C(C=CC=C3Cl)C(=O)OC,147150-35-4,-,-,-,A5334,-,-,-,1.20412,log(mg/L),4.429,-log(M),,,-,,-,,,,-
BrC1=CC=CC2=C1C=CC=C2,-,-,1,1-bromonapthtalene,A5370,19226181,-,S1,-4.35,log(mol/L),4.35,-log(M),Train,,-,,-,,,,-
BrC1=C(C(=CC(=C1)C#N)Br)O,-,-,2,bromoxynil,A5370,19226181,-,S1,-3.33,log(mol/L),3.33,-log(M),Train,,-,,-,,,,-
BrC1=C(C=C(C(=C1)Br)Br)Br,-,-,3,"1,2,4,5-Tetrabromobenzene",A5370,19226181,-,S1,-6.98,log(mol/L),6.98,-log(M),Train,,-,,-,,,,-
BrC1=C(C=C(C(=C1)Cl)OP(=S)(OC)OC)Cl,-,-,4,bromophos,A5370,19226181,-,S1,-6.09,log(mol/L),6.09,-log(M),Train,,-,,-,,,,-
BrC1=C(C=C(C=C1)NC(=O)N(OC)C)Cl,-,-,5,Chlorbromuron,A5370,19226181,-,S1,-3.92,log(mol/L),3.92,-log(M),Train,,-,,-,,,,-
BrC1=C(C=CC(=C1)Br)Br,-,-,6,"1,2,4-tribromobenzene",A5370,19226181,-,S1,-4.5,log(mol/L),4.5,-log(M),Train,,-,,-,,,,-
BrC1=C(C=CC=C1Br)Br,-,-,7,"1,2,3-tribromobenzene",A5370,19226181,-,S1,-5.04,log(mol/L),5.04,-log(M),Train,,-,,-,,,,-
BrC1=C(Br)C=CC=C1,-,-,8,"1,2-dibromobenzene",A5370,19226181,-,S1,-3.5,log(mol/L),3.5,-log(M),Train,,-,,-,,,,-
BrC1=C(C=CC=C1)C,-,-,9,2-Bromotoluene,A5370,19226181,-,S1,-2.23,log(mol/L),2.23,-log(M),Train,,-,,-,,,,-
BrC1=C(C=CC=C1)Cl,-,-,10,1-bromo-2-chlorobenzene,A5370,19226181,-,S1,-3.19,log(mol/L),3.19,-log(M),Train,,-,,-,,,,-
BrC1=C(C=CC=C1)F,-,-,11,o-Fluorobromobenzene,A5370,19226181,-,S1,-2.7,log(mol/L),2.7,-log(M),Train,,-,,-,,,,-
BrC1=CC2=C(C=C1)C=CC=C2,-,-,12,2-bromonaphthalene,A5370,19226181,-,S1,-4.4,log(mol/L),4.4,-log(M),Train,,-,,-,,,,-
BrC1=CC(=CC(=C1)Br)Br,-,-,13,"1,3,5-Tribromobenzene",A5370,19226181,-,S1,-5.6,log(mol/L),5.6,-log(M),Train,,-,,-,,,,-
BrC1=CC(=CC=C1)Br,-,-,14,"1,3-dibromobenzene",A5370,19226181,-,S1,-3.54,log(mol/L),3.54,-log(M),Train,,-,,-,,,,-
BrC1=CC(=CC=C1)C,-,-,15,m-bromotoluene,A5370,19226181,-,S1,-3.52,log(mol/L),3.52,-log(M),Train,,-,,-,,,,-
BrC1=CC(=CC=C1)Cl,-,-,16,1-bromo-3-chlorobenzene,A5370,19226181,-,S1,-3.21,log(mol/L),3.21,-log(M),Train,,-,,-,,,,-
BrC1=CC(=CC=C1)F,-,-,17,m-Fluorobromobenzene,A5370,19226181,-,S1,-2.67,log(mol/L),2.67,-log(M),Train,,-,,-,,,,-
BrC1=CC=C(C=C1)Br,-,-,18,"1,4-dibromobenzene",A5370,19226181,-,S1,-4.07,log(mol/L),4.07,-log(M),Train,,-,,-,,,,-
BrC1=CC=C(C=C1)C2=CC=C(C=C2)C(O)CC(C3=C(C4=C(C=CC=C4)OC3=O)O)C5=CC=CC=C5,-,-,19,bromadiolone,A5370,19226181,-,S1,-4.45,log(mol/L),4.45,-log(M),Train,,-,,-,,,,-
BrC1=CC=C(C=C1)C,-,-,20,p-bromotoluene,A5370,19226181,-,S1,-3.19,log(mol/L),3.19,-log(M),Train,,-,,-,,,,-
BrC1=CC=C(C=C1)Cl,-,-,21,1-bromo-4-chlorobenzene,A5370,19226181,-,S1,-3.63,log(mol/L),3.63,-log(M),Train,,-,,-,,,,-
BrC1=CC=C(C=C1)C(O)(C2=CC=C(C=C2)Br)C(=O)OC(C)C,-,-,22,bromopropylate,A5370,19226181,-,S1,-4.93,log(mol/L),4.93,-log(M),Train,,-,,-,,,,-
BrC1=CC=C(C=C1)NC(=O)C,-,-,23,4-bromoacetanilide,A5370,19226181,-,S1,-3.08,log(mol/L),3.08,-log(M),Train,,-,,-,,,,-
BrC1=CC=C(C=C1)O,-,-,24,4-bromophenol,A5370,19226181,-,S1,-1.09,log(mol/L),1.09,-log(M),Train,,-,,-,,,,-
BrC1=CC=CC=C1,-,-,25,bromobenzene,A5370,19226181,-,S1,-2.55,log(mol/L),2.55,-log(M),Train,,-,,-,,,,-
BrC1CCCCC1,-,-,26,bromocyclohexane,A5370,19226181,-,S1,-2.3,log(mol/L),2.3,-log(M),Train,,-,,-,,,,-
BrC1=C(C=NN(C1=O)C2=CC=CC=C2)N,-,-,27,brompyrazone,A5370,19226181,-,S1,-3.12,log(mol/L),3.12,-log(M),Train,,-,,-,,,,-
BrC1=C(NC(N(C1=O)C(CC)C)=O)C,-,-,28,Bromacil,A5370,19226181,-,S1,-2.52,log(mol/L),2.52,-log(M),Train,,-,,-,,,,-
BrC(Br)(Br)Br,-,-,29,tetrabromomethane,A5370,19226181,-,S1,-3.14,log(mol/L),3.14,-log(M),Train,,-,,-,,,,-
BrC(=C)CC1(C(NC(NC1=O)=O)=O)C(CC)C,-,-,30,butallylonal,A5370,19226181,-,S1,-2.65,log(mol/L),2.65,-log(M),Train,,-,,-,,,,-
BrC(CC)(CC)C(=O)NC(=O)N,-,-,31,carbromal,A5370,19226181,-,S1,-2.68,log(mol/L),2.68,-log(M),Train,,-,,-,,,,-
BrC(=CC1C(C1C(=O)OC(C2=CC(=CC=C2)OC3=CC=CC=C3)C#N)(C)C)Br,-,-,32,Deltamethrin,A5370,19226181,-,S1,-8.4,log(mol/L),8.4,-log(M),Train,,-,,-,,,,-
BrC(Cl)(Cl)C(Br)OP(=O)(OC)OC,-,-,33,Naled,A5370,19226181,-,S1,-2.28,log(mol/L),2.28,-log(M),Train,,-,,-,,,,-
BrCBr,-,-,34,dibromomethane,A5370,19226181,-,S1,-1.17,log(mol/L),1.17,-log(M),Train,,-,,-,,,,-
BrCCBr,-,-,35,"1,2-dibromoethane",A5370,19226181,-,S1,-1.68,log(mol/L),1.68,-log(M),Train,,-,,-,,,,-
BrCCCBr,-,-,36,"1,3-dibromopropane",A5370,19226181,-,S1,-2.08,log(mol/L),2.08,-log(M),Train,,-,,-,,,,-
BrCCCCCCCC,-,-,37,1-bromooctane,A5370,19226181,-,S1,-5.06,log(mol/L),5.06,-log(M),Train,,-,,-,,,,-
BrCCCCCCC,-,-,38,1-bromoheptane,A5370,19226181,-,S1,-4.43,log(mol/L),4.43,-log(M),Train,,-,,-,,,,-
BrCCCCCC,-,-,39,1-bromohexane,A5370,19226181,-,S1,-3.81,log(mol/L),3.81,-log(M),Train,,-,,-,,,,-
BrCCCCC,-,-,40,1-bromopentane,A5370,19226181,-,S1,-3.07,log(mol/L),3.07,-log(M),Train,,-,,-,,,,-
BrCCCC,-,-,41,1-bromobutane,A5370,19226181,-,S1,-2.37,log(mol/L),2.37,-log(M),Train,,-,,-,,,,-
BrCCCCl,-,-,42,1-bromo-3-chloropropane,A5370,19226181,-,S1,-1.85,log(mol/L),1.85,-log(M),Train,,-,,-,,,,-
BrCCC,-,-,43,1-bromopropane,A5370,19226181,-,S1,-1.73,log(mol/L),1.73,-log(M),Train,,-,,-,,,,-
BrCCC(C)C,-,-,44,1-bromo-3-methylbutane,A5370,19226181,-,S1,-2.89,log(mol/L),2.89,-log(M),Train,,-,,-,,,,-
BrCCCl,-,-,45,1-chloro-2-bromoethane,A5370,19226181,-,S1,-1.32,log(mol/L),1.32,-log(M),Train,,-,,-,,,,-
BrCC,-,-,46,bromoethane,A5370,19226181,-,S1,-1.09,log(mol/L),1.09,-log(M),Train,,-,,-,,,,-
BrCC=C,-,-,47,3-bromopropylene,A5370,19226181,-,S1,-1.5,log(mol/L),1.5,-log(M),Train,,-,,-,,,,-
BrCC(C)C,-,-,48,1-bromo-2-methylpropane,A5370,19226181,-,S1,-2.43,log(mol/L),2.43,-log(M),Train,,-,,-,,,,-
BrCCl,-,-,49,bromochloromethane,A5370,19226181,-,S1,-0.89,log(mol/L),0.89,-log(M),Train,,-,,-,,,,-
BrC,-,-,50,Bromomethane,A5370,19226181,-,S1,-0.79,log(mol/L),0.79,-log(M),Train,,-,,-,,,,-
BrC(Br)Br,-,-,51,bromoform,A5370,19226181,-,S1,-1.91,log(mol/L),1.91,-log(M),Train,,-,,-,,,,-
BrC(Br)Cl,-,-,52,chlorodibromomethane,A5370,19226181,-,S1,-1.9,log(mol/L),1.9,-log(M),Train,,-,,-,,,,-
BrC(CBr)CCl,-,-,53,"1,2-dibromo-3-chloropropane",A5370,19226181,-,S1,-2.38,log(mol/L),2.38,-log(M),Train,,-,,-,,,,-
BrC(CBr)C,-,-,54,"1,2-dibromopropane",A5370,19226181,-,S1,-2.15,log(mol/L),2.15,-log(M),Train,,-,,-,,,,-
BrC(C)C,-,-,55,2-bromopropane,A5370,19226181,-,S1,-1.59,log(mol/L),1.59,-log(M),Train,,-,,-,,,,-
BrC(Cl)C(F)(F)F,-,-,56,Halothane,A5370,19226181,-,S1,-1.71,log(mol/L),1.71,-log(M),Train,,-,,-,,,,-
BrC(Cl)Cl,-,-,57,bromodichloromethane,A5370,19226181,-,S1,-1.54,log(mol/L),1.54,-log(M),Train,,-,,-,,,,-
BrC=CBr,-,-,58,"1,2-dibromoethylene",A5370,19226181,-,S1,-1.32,log(mol/L),1.32,-log(M),Train,,-,,-,,,,-
BrC=CBr,-,-,59,"1,2-dibromoethylene",A5370,19226181,-,S1,-1.32,log(mol/L),1.32,-log(M),Train,,-,,-,,,,-
C12=C3C=CC4=C1C5=C(C=CC6=C5C7=C2C(=CC=C7C=C6)C=C3)C=C4,-,-,60,Coronene,A5370,19226181,-,S1,-9.33,log(mol/L),9.33,-log(M),Train,,-,,-,,,,-
C12=C3C=CC4=CC=CC(=C14)C5=CC=CC6=C5C2=C(C=C3)C=C6,-,-,61,benzo(ghi)perylene,A5370,19226181,-,S1,-9.03,log(mol/L),9.03,-log(M),Train,,-,,-,,,,-
C12=C3C=CC=C1C4=C(C5=CC=CC(=C25)C=C3)C=CC=C4,-,-,62,benzo(e)pyrene,A5370,19226181,-,S1,-7.8,log(mol/L),7.8,-log(M),Train,,-,,-,,,,-
C12=C3C4=CC=C1C5=C(C=C2C=CC3=CC=C4)C=CC=C5,-,-,63,benzo(a)pyrene,A5370,19226181,-,S1,-8.19,log(mol/L),8.19,-log(M),Train,,-,,-,,,,-
C=1C=2C3=C4C(=CC=CC4=CC2)C=CC3=CC1,-,-,64,pyrene,A5370,19226181,-,S1,-6.19,log(mol/L),6.19,-log(M),Train,,-,,-,,,,-
C12=CC=C3C(=C1C=CC4=C2C=CC5=C4C=CC=C5)C=CC=C3,-,-,65,Picene,A5370,19226181,-,S1,-7.87,log(mol/L),7.87,-log(M),Train,,-,,-,,,,-
C12=CC=CC3=C1C(=CC4=C2C=CC=C4)C5=C3C=CC=C5,-,-,66,benzo(b)fluoranthene,A5370,19226181,-,S1,-8.23,log(mol/L),8.23,-log(M),Train,,-,,-,,,,-
C12=CC3=C(C=C1C=CC4=C2C=CC=C4)C5=C(C=C3)C=CC=C5,-,-,67,"dibenz(a,h)anthracene",A5370,19226181,-,S1,-8.66,log(mol/L),8.66,-log(M),Train,,-,,-,,,,-
C12=CC=CC=C1C=CC3=C2C=CC=C3,-,-,68,phenantherene,A5370,19226181,-,S1,-5.26,log(mol/L),5.26,-log(M),Train,,-,,-,,,,-
C12=C3C=CC=C1C=CC=C2C4=C3C5=C(C=C4)C=CC=C5,-,-,69,benzo(j)fluoranthene,A5370,19226181,-,S1,-8.0,log(mol/L),8.0,-log(M),Train,,-,,-,,,,-
C12=C3C=CC=C1C=CC=C2C4=CC=CC5=CC=CC3=C45,-,-,70,perylene,A5370,19226181,-,S1,-8.8,log(mol/L),8.8,-log(M),Train,,-,,-,,,,-
C12=C3C=CC=C1C=CC=C2C4=C3C=C5C(=C4)C=CC=C5,-,-,71,benzo(k)fluoranthene,A5370,19226181,-,S1,-8.49,log(mol/L),8.49,-log(M),Train,,-,,-,,,,-
C12=C3C=CC=C1C=CC=C2C4=C3C=CC=C4,-,-,72,Fluoranthene,A5370,19226181,-,S1,-6.0,log(mol/L),6.0,-log(M),Train,,-,,-,,,,-
C12=CC=CC=C1C3=C(C4=C2C=CC=C4)C=CC=C3,-,-,73,triphenylene,A5370,19226181,-,S1,-6.74,log(mol/L),6.74,-log(M),Train,,-,,-,,,,-
C12=CC=C3C(=C1C=CC4=C2C=CC=C4)C=CC=C3,-,-,74,Chrysene,A5370,19226181,-,S1,-8.06,log(mol/L),8.06,-log(M),Train,,-,,-,,,,-
C12=CC3=C(C=C1C=C4C(=C2)C=CC=C4)C=CC=C3,-,-,75,naphthacene,A5370,19226181,-,S1,-8.6,log(mol/L),8.6,-log(M),Train,,-,,-,,,,-
C12=CC3=C(C=C1C=CC=C2)C=CC=C3,-,-,76,Anthracene,A5370,19226181,-,S1,-6.35,log(mol/L),6.35,-log(M),Train,,-,,-,,,,-
C12=CC=CC=C1C=CC=C2,-,-,77,Naphthalene,A5370,19226181,-,S1,-3.6,log(mol/L),3.6,-log(M),Train,,-,,-,,,,-
C1(CC(CC1)C)(C)C,-,-,78,"1,1,3-trimethylcyclopentane",A5370,19226181,-,S1,-4.48,log(mol/L),4.48,-log(M),Train,,-,,-,,,,-
C1(=CC=C(C=C1)C2=CC=CC=C2)C3=CC=CC=C3,-,-,79,p-terphenyl,A5370,19226181,-,S1,-7.11,log(mol/L),7.11,-log(M),Train,,-,,-,,,,-
C1=CC(=CC=C1)C2=CC=CC=C2,-,-,80,biphenyl,A5370,19226181,-,S1,-4.31,log(mol/L),4.31,-log(M),Train,,-,,-,,,,-
C1(=CC=CC=C1)C=C,-,-,81,styrene,A5370,19226181,-,S1,-2.82,log(mol/L),2.82,-log(M),Train,,-,,-,,,,-
C1C2=C(C=CC3=C2C=CC=C3)C4=C1C=CC=C4,-,-,82,benzo(a)fluorene,A5370,19226181,-,S1,-6.68,log(mol/L),6.68,-log(M),Train,,-,,-,,,,-
C1C2=C(C=C3C(=C2)C=CC=C3)C4=C1C=CC=C4,-,-,83,benzo(b)fluorene,A5370,19226181,-,S1,-8.04,log(mol/L),8.04,-log(M),Train,,-,,-,,,,-
C1C2=C(C=CC=C2C)C3=C1C=CC=C3,-,-,84,1-methylfluorene,A5370,19226181,-,S1,-5.22,log(mol/L),5.22,-log(M),Train,,-,,-,,,,-
C1C2=C(C=CC=C2)C3=C1C=CC=C3,-,-,85,Fluorene,A5370,19226181,-,S1,-4.91,log(mol/L),4.91,-log(M),Train,,-,,-,,,,-
C1CC2=C3C4=C(CCCC4=CC=C3C1)C=C2,-,-,86,"1,2,3,6,7,8-hexahydropyrene",A5370,19226181,-,S1,-5.96,log(mol/L),5.96,-log(M),Train,,-,,-,,,,-
C1CC2=CC=CC3=C2C1=C4C=CC5=C(C4=C3)C=CC(=C5)C,-,-,87,3-methylcholanthrene,A5370,19226181,-,S1,-7.92,log(mol/L),7.92,-log(M),Train,,-,,-,,,,-
C1CC2=C(C=CC3=C2C1=C4C=CC5=C(C4=C3)C=CC=C5)C,-,-,88,3-methylcholanthrene,A5370,19226181,-,S1,-7.92,log(mol/L),7.92,-log(M),Train,,-,,-,,,,-
C1CC2=CC=CC3=C2C1=C4C=CC5=C(C4=C3)C=CC=C5,-,-,89,Cholanthrene,A5370,19226181,-,S1,-7.85,log(mol/L),7.85,-log(M),Train,,-,,-,,,,-
C1CC2=CC=CC3=C2C1=CC=C3,-,-,90,Acenaphthene,A5370,19226181,-,S1,-4.63,log(mol/L),4.63,-log(M),Train,,-,,-,,,,-
C1CC2=C(C1)C=CC=C2,-,-,91,indane,A5370,19226181,-,S1,-3.04,log(mol/L),3.04,-log(M),Train,,-,,-,,,,-
C1CCC2=C(C=CC=C2)C1,-,-,92,"1,2,3,4-Tetrahydronapthalene",A5370,19226181,-,S1,-4.37,log(mol/L),4.37,-log(M),Train,,-,,-,,,,-
C1CCCC1,-,-,93,cyclopentane,A5370,19226181,-,S1,-2.64,log(mol/L),2.64,-log(M),Train,,-,,-,,,,-
C1CCCCC1,-,-,94,Cyclohexane,A5370,19226181,-,S1,-3.1,log(mol/L),3.1,-log(M),Train,,-,,-,,,,-
C1CCCCCC1,-,-,95,cycloheptane,A5370,19226181,-,S1,-3.52,log(mol/L),3.52,-log(M),Train,,-,,-,,,,-
C1CCCCCCC1,-,-,96,cyclooctane,A5370,19226181,-,S1,-4.15,log(mol/L),4.15,-log(M),Train,,-,,-,,,,-
C1CCC=C(C1)C,-,-,97,1-methylcyclohexene,A5370,19226181,-,S1,-3.27,log(mol/L),3.27,-log(M),Train,,-,,-,,,,-
C1CCC=CC1,-,-,98,cyclohexene,A5370,19226181,-,S1,-2.59,log(mol/L),2.59,-log(M),Train,,-,,-,,,,-
C1CCC=CCC1,-,-,99,Cycloheptene,A5370,19226181,-,S1,-3.18,log(mol/L),3.18,-log(M),Train,,-,,-,,,,-
C1CC=CC1,-,-,100,cyclopentene,A5370,19226181,-,S1,-2.1,log(mol/L),2.1,-log(M),Train,,-,,-,,,,-
C1C=CCC=C1,-,-,101,"1,4-cyclohexadiene",A5370,19226181,-,S1,-1.97,log(mol/L),1.97,-log(M),Train,,-,,-,,,,-
C1C=CC=CC=C1,-,-,102,cycloheptatriene,A5370,19226181,-,S1,-2.15,log(mol/L),2.15,-log(M),Train,,-,,-,,,,-
C1(CCCC1)CCCCC,-,-,104,Pentylcyclopentane,A5370,19226181,-,S1,-6.08,log(mol/L),6.08,-log(M),Train,,-,,-,,,,-
C1(CCCC1)CCC,-,-,105,n-propylcyclopentane,A5370,19226181,-,S1,-4.74,log(mol/L),4.74,-log(M),Train,,-,,-,,,,-
C1(C)CCCC1,-,-,106,Methylcyclopentane,A5370,19226181,-,S1,-3.3,log(mol/L),3.3,-log(M),Train,,-,,-,,,,-
C1(CCCCC1)CC,-,-,107,ethylcyclohexane,A5370,19226181,-,S1,-4.25,log(mol/L),4.25,-log(M),Train,,-,,-,,,,-
C1(C)CCCCC1,-,-,108,Methylcyclohexane,A5370,19226181,-,S1,-3.85,log(mol/L),3.85,-log(M),Train,,-,,-,,,,-
C1CC(C)CCC1C,-,-,109,"1,4-dimethylcyclohexane",A5370,19226181,-,S1,-4.47,log(mol/L),4.47,-log(M),Train,,-,,-,,,,-
C1(CCC(=CC1)C)C(=C)C,-,-,110,d-limonene,A5370,19226181,-,S1,-4.0,log(mol/L),4.0,-log(M),Train,,-,,-,,,,-
C12C(CCCC1)CCCC2,-,-,111,Decalin,A5370,19226181,-,S1,-5.19,log(mol/L),5.19,-log(M),Train,,-,,-,,,,-
C1(C(CCCC1)C)C,-,-,112,"trans-1,2-dimethylcyclohexane",A5370,19226181,-,S1,-4.27,log(mol/L),4.27,-log(M),Train,,-,,-,,,,-
C1=CC=CC=C1,-,-,113,Benzene,A5370,19226181,-,S1,-1.64,log(mol/L),1.64,-log(M),Train,,-,,-,,,,-
C1=CC2=CC=CC3=C2C1=CC=C3,-,-,114,acenaphthylene,A5370,19226181,-,S1,-3.96,log(mol/L),3.96,-log(M),Train,,-,,-,,,,-
C(CC1=CC=CC=C1)(C)(C)C,-,-,115,t-Pentylbenzene,A5370,19226181,-,S1,-4.15,log(mol/L),4.15,-log(M),Train,,-,,-,,,,-
C(CCC)(C)(C)C,-,-,116,"2,2-Dimethylpentane",A5370,19226181,-,S1,-4.36,log(mol/L),4.36,-log(M),Train,,-,,-,,,,-
C(CCC(C)C)(C)(C)C,-,-,117,"2,2,5-Trimethylhexane",A5370,19226181,-,S1,-5.05,log(mol/L),5.05,-log(M),Train,,-,,-,,,,-
C(CC)(CC)(C)C,-,-,118,"3,3-Dimethylpentane",A5370,19226181,-,S1,-4.23,log(mol/L),4.23,-log(M),Train,,-,,-,,,,-
CCC(C)(C)C1=CC=CC=C1,-,-,119,t-amylbenzene,A5370,19226181,-,S1,-4.15,log(mol/L),4.15,-log(M),Train,,-,,-,,,,-
C(CC)(C)(C)C,-,-,120,"2,2-Dimethylbutane",A5370,19226181,-,S1,-3.55,log(mol/L),3.55,-log(M),Train,,-,,-,,,,-
C(CC(C)C)(C)(C)C,-,-,121,"2,2,4-Trimethylpentane",A5370,19226181,-,S1,-4.74,log(mol/L),4.74,-log(M),Train,,-,,-,,,,-
CC(C)(C)C1=CC=CC=C1,-,-,122,t-Butylbenzene,A5370,19226181,-,S1,-3.66,log(mol/L),3.66,-log(M),Train,,-,,-,,,,-
C(C(C)C)(C)(C)C,-,-,123,"2,2,3-Trimethylbutane",A5370,19226181,-,S1,-4.36,log(mol/L),4.36,-log(M),Train,,-,,-,,,,-
C1(=CC=CC=C1)CC2=CC=CC=C2,-,-,124,diphenylmethane,A5370,19226181,-,S1,-4.17,log(mol/L),4.17,-log(M),Train,,-,,-,,,,-
C=C,-,-,125,Ethylene,A5370,19226181,-,S1,-0.4,log(mol/L),0.4,-log(M),Train,,-,,-,,,,-
C(CC1=CC=CC=C1)C2=CC=CC=C2,-,-,126,bibenzyl,A5370,19226181,-,S1,-4.62,log(mol/L),4.62,-log(M),Train,,-,,-,,,,-
C1(CCC)=CC=CC=C1,-,-,127,n-Propylbenzene,A5370,19226181,-,S1,-3.37,log(mol/L),3.37,-log(M),Train,,-,,-,,,,-
C(=C)(CCC)C,-,-,128,2-Methyl-1-Pentene,A5370,19226181,-,S1,-3.03,log(mol/L),3.03,-log(M),Train,,-,,-,,,,-
C#CCCC,-,-,129,1-pentyne,A5370,19226181,-,S1,-1.64,log(mol/L),1.64,-log(M),Train,,-,,-,,,,-
C(CCC1=CC=CC=C1)CC,-,-,130,n-pentylbenzene,A5370,19226181,-,S1,-4.64,log(mol/L),4.64,-log(M),Train,,-,,-,,,,-
C(CCC#C)CC,-,-,131,1-heptyne,A5370,19226181,-,S1,-3.01,log(mol/L),3.01,-log(M),Train,,-,,-,,,,-