SMILES,CASRN,EXTERNALID,N,NAME,ARTICLEID,PUBMEDID,PAGE,TABLE,Solubility_log(mol/L),UNIT {Water solubility},"Water solubility {measured, converted}",UNIT {Water solubility}.1,Dataset,Temperature,UNIT {Temperature},Ionic strength,UNIT {Ionic strength},comment (chemical),source,pH,UNIT {pH}
C(C)(=O)OCCCC,123-86-4,-,205,Butyl acetate,A171,10850781,-,-,-1.24,log(mol/L),1.24,-log(M),Train,,-,,-,,,,-
CCCCCCO,111-27-3,-,206,1-hexanol,A171,10850781,-,-,-1.24,log(mol/L),1.24,-log(M),Train,,-,,-,,,,-
O=C1C(NC(NC1=O)=O)=O,50-71-5,-,207,alloxan,A171,10850781,-,-,-1.25,log(mol/L),1.25,-log(M),Train,,-,,-,,,,-
CC(C)(C)C(C)(O)CC,-,-,208,"2,2,3-trimethyl-3-pentanol",A171,10850781,-,-,-1.27,log(mol/L),1.27,-log(M),Train,,-,,-,,,,-
CC(=O)C1=CC=CC=C1,98-86-2,-,209,Acetophenone,A171,10850781,-,-,-1.28,log(mol/L),1.28,-log(M),Train,,-,,-,,,,-
CC(C1=CC(N)=CC=C1)=O,99-03-6,-,210,m-aminoacetophenone,A171,10850781,-,-,-1.28,log(mol/L),1.28,-log(M),Train,,-,,-,,,,-
C(CCC)(=O)OCC,105-54-4,-,211,ethyl butyrate,A171,10850781,-,-,-1.28,log(mol/L),1.28,-log(M),Train,,-,,-,,,,-
CC(Cl)Cl,75-34-3,-,212,"1,1-dichloroethane",A171,10850781,-,-,-1.29,log(mol/L),1.29,-log(M),Train,,-,,-,,,,-
CC(NC1=CC=C(OC)C=C1)=O,51-66-1,-,213,4-methoxyacetanilide,A171,10850781,-,-,-1.3,log(mol/L),1.3,-log(M),Train,,-,,-,,,,-
C=12C=CC=NC1C=CC=C2,91-22-5,-,214,Quinoline,A171,10850781,-,-,-1.3,log(mol/L),1.3,-log(M),Train,,-,,-,,,,-
CCCCCC=O,66-25-1,-,215,hexanal,A171,10850781,-,-,-1.3,log(mol/L),1.3,-log(M),Train,,-,,-,,,,-
C1C(=C(N2C(S1)C(C2=O)NC(=O)CC3=CC=CS3)C(=O)[O-])C[N+]4=CC=CC=C4,50-59-9,-,216,Cephaloridine,A171,10850781,-,,1.32,log(mol/L),-1.32,-log(M),Train,,-,,-,,,,-
BrCCCl,107-04-0,-,217,1-chloro-2-bromoethane,A171,10850781,-,-,-1.32,log(mol/L),1.32,-log(M),Train,,-,,-,,,,-
CC(NC1=CC=CC=C1)=O,103-84-4,-,218,acetanilide,A171,10850781,-,-,-1.33,log(mol/L),1.33,-log(M),Train,,-,,-,,,,-
CC(CCC(C)C)=O,110-12-3,-,219,5-methyl-2-hexanone,A171,10850781,-,-,-1.33,log(mol/L),1.33,-log(M),Train,,-,,-,,,,-
CCC1=CC=CC=C1O,90-00-6,-,220,o-ethylphenol,A171,10850781,-,-,-1.36,log(mol/L),1.36,-log(M),Train,,-,,-,,,,-
CCCCC(OC)=O,624-24-8,-,221,methyl valerate,A171,10850781,-,-,-1.36,log(mol/L),1.36,-log(M),Train,,-,,-,,,,-
N=C(N)NN(=O)=O,556-88-7,-,222,nitroguanidine,A171,10850781,-,-,-1.37,log(mol/L),1.37,-log(M),Train,,-,,-,,,,-
ClC1=CC(N)=CC=C1,108-42-9,-,223,3-chloroaniline,A171,10850781,-,-,-1.37,log(mol/L),1.37,-log(M),Train,,-,,-,,,,-
OCCCC1=CC=CC=C1,122-97-4,-,224,3-phenylpropanol,A171,10850781,-,-,-1.38,log(mol/L),1.38,-log(M),Train,,-,,-,,,,-
CC(O)CCC(C)C,627-59-8,-,225,5-methyl-2-hexanol,A171,10850781,-,-,-1.38,log(mol/L),1.38,-log(M),Train,,-,,-,,,,-
O=C1C(CC)(CC)C(NC(N1)=O)=O,57-44-3,-,226,barbital,A171,10850781,-,-,-1.39,log(mol/L),1.39,-log(M),Train,,-,,-,,,,-
CC1=CC(=CC(=C1)O)C,108-68-9,-,227,"3,5-xylenol",A171,10850781,-,-,-1.4,log(mol/L),1.4,-log(M),Train,,-,,-,,,,-
O=C(C1=CC=C(C=C1)N)OCCN(CC)CC,59-46-1,-,228,procaine,A171,10850781,-,-,-1.4,log(mol/L),1.4,-log(M),Train,,-,,-,,,,-
CC(NC1=CC=CC=C1Cl)=O,533-17-5,-,229,2'-chloroacetanilide,A171,10850781,-,-,-1.4,log(mol/L),1.4,-log(M),Train,,-,,-,,,,-
CCCC(O)CCC,589-55-9,-,230,4-heptanol,A171,10850781,-,-,-1.4,log(mol/L),1.4,-log(M),Train,,-,,-,,,,-
O=C(O)CCC1=CC=CC=C1,501-52-0,-,231,hydrocinnamic acid,A171,10850781,-,-,-1.41,log(mol/L),1.41,-log(M),Train,,-,,-,,,,-
CC(CCCCC)=O,110-43-0,-,232,2-Heptanone,A171,10850781,-,-,-1.42,log(mol/L),1.42,-log(M),Train,,-,,-,,,,-
C1(C2=NC=CC=C2)=CC=CC=N1,366-18-7,-,233,"2,2'-BIPYRIDINE",A171,10850781,-,-,-1.42,log(mol/L),1.42,-log(M),Train,,-,,-,,,,-
CC1=C(O)C=CC=C1C,526-75-0,-,234,"2,3-xylenol",A171,10850781,-,-,-1.43,log(mol/L),1.43,-log(M),Train,,-,,-,,,,-
CCCCNCCCC,111-92-2,-,235,n-dibutylamine,A171,10850781,-,-,-1.44,log(mol/L),1.44,-log(M),Train,,-,,-,,,,-
C1=CC=CS1,110-02-1,-,236,thiophene,A171,10850781,-,-,-1.45,log(mol/L),1.45,-log(M),Train,,-,,-,,,,-
C=12C=CN=CC1C=CC=C2,119-65-3,-,237,isoquinoline,A171,10850781,-,-,-1.45,log(mol/L),1.45,-log(M),Train,,-,,-,,,,-
O=C(O)C1=CSC=C1,88-13-1,-,238,thiophene-3-carboxylic acid,A171,10850781,-,-,-1.47,log(mol/L),1.47,-log(M),Train,,-,,-,,,,-
ClCCC,540-54-5,-,239,1-Chloropropane,A171,10850781,-,-,-1.47,log(mol/L),1.47,-log(M),Train,,-,,-,,,,-
ClC(Cl)CCl,79-00-5,-,240,"1,1,2-trichloroethane",A171,10850781,-,-,-1.48,log(mol/L),1.48,-log(M),Train,,-,,-,,,,-
O=CC1=CC=C(OC)C=C1,123-11-5,-,241,p-methoxybenzaldehyde,A171,10850781,-,-,-1.49,log(mol/L),1.49,-log(M),Train,,-,,-,,,,-
ClCCS(=O)(CCCl)=O,-,-,242,bis-(2-chloroethyl)-sulfone,A171,10850781,-,-,-1.5,log(mol/L),1.5,-log(M),Train,,-,,-,,,,-
O=C(O)CNC(N)=N,352-97-6,-,243,guanidinoacetic acid,A171,10850781,-,-,-1.51,log(mol/L),1.51,-log(M),Train,,-,,-,,,,-
C=12C=CC=CC1NC=C2,120-72-9,-,244,indole,A171,10850781,-,-,-1.52,log(mol/L),1.52,-log(M),Train,,-,,-,,,,-
OCC(C)(C)CCC,-,-,245,"2,2-dimethyl-1-pentanol",A171,10850781,-,-,-1.52,log(mol/L),1.52,-log(M),Train,,-,,-,,,,-
OC(C1=CC=CC=C1N)=O,118-92-3,-,246,2-aminobenzoic acid,A171,10850781,-,-,-1.52,log(mol/L),1.52,-log(M),Train,,-,,-,,,,-
OC1C=CC2C34C1OC5=C(C=CC(=C35)CC2N(C)CC4)OC,76-57-3,-,247,Codeine,A171,10850781,-,-,-1.52,log(mol/L),1.52,-log(M),Train,,-,,-,,,,-
NCC1=CC=CC=C1,100-46-9,-,248,benzylamine,A171,10850781,-,-,-1.53,log(mol/L),1.53,-log(M),Train,,-,,-,,,,-
C1(C2=CC=NC=C2)=CC=NC=C1,553-26-4,-,249,"4,4'-Bipyridine",A171,10850781,-,-,-1.54,log(mol/L),1.54,-log(M),Train,,-,,-,,,,-
OC1=CC(C)=CC=C1C,95-87-4,-,250,"2,5-xylenol",A171,10850781,-,-,-1.54,log(mol/L),1.54,-log(M),Train,,-,,-,,,,-
OCCCC(C)(C)C,3121-79-7,-,251,"4,4-dimethyl-1-pentanol",A171,10850781,-,-,-1.55,log(mol/L),1.55,-log(M),Train,,-,,-,,,,-
OC(C1=CC=CC=C1)=O,65-85-0,-,252,Benzoic acid,A171,10850781,-,-,-1.55,log(mol/L),1.55,-log(M),Train,,-,,-,,,,-
CN1CCCCC1C(NC2=C(C)C=CC=C2C)=O,96-88-8,-,253,"d,l-mepivacaine",A171,10850781,-,-,-1.55,log(mol/L),1.55,-log(M),Train,,-,,-,,,,-
CSC1=CN=C2N=CN=CC2=N1,-,-,254,7-methylthiopteridine,A171,10850781,-,-,-1.55,log(mol/L),1.55,-log(M),Train,,-,,-,,,,-
ClC1=CC(Cl)=CC=C1O,120-83-2,-,255,"2,4-dichlorophenol",A171,10850781,-,-,-1.55,log(mol/L),1.55,-log(M),Train,,-,,-,,,,-
CCCCCC(O)C,543-49-7,-,256,2-heptanol,A171,10850781,-,-,-1.55,log(mol/L),1.55,-log(M),Train,,-,,-,,,,-
CCCCC(=O)CC(=O)C,14090-87-0,-,257,"2,4-octadione",A171,10850781,-,-,-1.56,log(mol/L),1.56,-log(M),Train,,-,,-,,,,-
OC1=C(OC)C=C(CC=C)C=C1,97-53-0,-,258,eugenol,A171,10850781,-,-,-1.56,log(mol/L),1.56,-log(M),Train,,-,,-,,,,-
CN1C(NC=2NC(NC2C1=O)=O)=O,708-79-2,-,259,1-methyluric acid,A171,10850781,-,-,-1.56,log(mol/L),1.56,-log(M),Train,,-,,-,,,,-
CC1=CC(O)=CC=C1Cl,59-50-7,-,260,3-methyl-4-chlorophenol,A171,10850781,-,-,-1.57,log(mol/L),1.57,-log(M),Train,,-,,-,,,,-
CNC(OC1=C(C2OCCO2)C=CC=C1)=O,6988-21-2,-,261,dioxacarb,A171,10850781,-,-,-1.57,log(mol/L),1.57,-log(M),Train,,-,,-,,,,-
CC(NC1=CC=C(C=C1)C=O)=O,122-85-0,-,262,4-formylacetanilide,A171,10850781,-,-,-1.58,log(mol/L),1.58,-log(M),Train,,-,,-,,,,-
O=C(C1=CC=C(N)C=C1)OC,619-45-4,-,263,methyl-4-aminobenzoate,A171,10850781,-,-,-1.59,log(mol/L),1.59,-log(M),Train,,-,,-,,,,-
C1(C2=CC=CC=C2)CO1,96-09-3,-,264,styrene oxide,A171,10850781,-,-,-1.6,log(mol/L),1.6,-log(M),Train,,-,,-,,,,-
CC(Cl)CCl,78-87-5,-,265,"1,2-dichloropropane",A171,10850781,-,-,-1.6,log(mol/L),1.6,-log(M),Train,,-,,-,,,,-
CC(C)CC(=O)CC(=O)C,-,-,266,"6-methyl-2,4-heptadione",A171,10850781,-,-,-1.6,log(mol/L),1.6,-log(M),Train,,-,,-,,,,-
CC1=C(N(C(C(OC)=O)C)C(COC)=O)C(C)=CC=C1,57837-19-1,-,267,metalaxyl,A171,10850781,-,-,-1.6,log(mol/L),1.6,-log(M),Train,,-,,-,,,,-
FC(F)(F)C1=C(C(O)=O)C=CC=C1,433-97-6,-,268,trifluoro-o-toluic acid,A171,10850781,-,-,-1.6,log(mol/L),1.6,-log(M),Train,,-,,-,,,,-
OCC(C)CC(C)C,6305-71-1,-,269,"2,4-dimethyl-1-pentanol",A171,10850781,-,-,-1.6,log(mol/L),1.6,-log(M),Train,,-,,-,,,,-
O=C(NC1=CC=CC=C1)N(C)C,101-42-8,-,270,fenuron,A171,10850781,-,-,-1.6,log(mol/L),1.6,-log(M),Train,,-,,-,,,,-
NS(=O)(C1=CC=C(C=C1)NC(C)=O)=O,121-61-9,-,271,N-[4-(aminosulfonyl)phenyl]-acetamide,A171,10850781,-,-,-1.61,log(mol/L),1.61,-log(M),Train,,-,,-,,,,-
OC1C(OC(C)=O)C(NC1)CC2=CC=C(OC)C=C2,22862-76-6,-,272,anisomycin,A171,10850781,-,-,-1.61,log(mol/L),1.61,-log(M),Train,,-,,-,,,,-
CNC(ON=C(C(C)(C)C)CSC)=O,39196-18-4,-,273,thiofanox,A171,10850781,-,-,-1.62,log(mol/L),1.62,-log(M),Train,,-,,-,,,,-
O=C(N(CC=C)CC=C)C(Cl)Cl,37764-25-3,-,274,"n,n-diallyldichloroacetamide",A171,10850781,-,-,-1.62,log(mol/L),1.62,-log(M),Train,,-,,-,,,,-
ClCCCCl,142-28-9,-,275,"1,3-dichloropropane",A171,10850781,-,-,-1.62,log(mol/L),1.62,-log(M),Train,,-,,-,,,,-
CCCOCCC,111-43-3,-,276,dipropyl ether,A171,10850781,-,-,-1.62,log(mol/L),1.62,-log(M),Train,,-,,-,,,,-
O=CC1=CC=2OCOC2C=C1,120-57-0,-,277,piperonal,A171,10850781,-,-,-1.63,log(mol/L),1.63,-log(M),Train,,-,,-,,,,-
C1=CC=CC=C1,71-43-2,-,278,Benzene,A171,10850781,-,-,-1.64,log(mol/L),1.64,-log(M),Train,,-,,-,,,,-
C=C(Cl)Cl,75-35-4,-,279,"1,1-dichloroethylene",A171,10850781,-,-,-1.64,log(mol/L),1.64,-log(M),Train,,-,,-,,,,-
O=S1(C2=CC=CC=C2C(=O)N1)=O,81-07-2,-,280,saccharin,A171,10850781,-,-,-1.64,log(mol/L),1.64,-log(M),Train,,-,,-,,,,-
CC12CCC(CC1)C(O2)(C)C,470-82-6,-,281,eucalyptol,A171,10850781,-,-,-1.64,log(mol/L),1.64,-log(M),Train,,-,,-,,,,-
O=C1NC(C(C(N1)=O)(CCCC)CC)=O,77-28-1,-,282,5-butyl-5-ethylbarbituric acid,A171,10850781,-,-,-1.64,log(mol/L),1.64,-log(M),Train,,-,,-,,,,-
ClC1=CC=C(N)C=C1,106-47-8,-,283,4-chloroaniline,A171,10850781,-,-,-1.66,log(mol/L),1.66,-log(M),Train,,-,,-,,,,-
C1=CC=C2C(=C1)C(=O)NS2(=O)=O,81-07-2,-,284,saccharin,A171,10850781,-,,-1.66,log(mol/L),1.66,-log(M),Train,,-,,-,,,,-
CC(COC(N)=O)(CCC)COC(N)=O,57-53-4,-,285,Meprobamate,A171,10850781,-,-,-1.67,log(mol/L),1.67,-log(M),Train,,-,,-,,,,-
CC(OC1CCCCC1)=O,622-45-7,-,286,-,A171,10850781,-,,-1.67,log(mol/L),1.67,-log(M),Train,,-,,-,,,,-
O=N(=O)C1=CC(C(O)=O)=CC=C1,121-92-6,-,287,3-nitrobenzoic acid,A171,10850781,-,-,-1.68,log(mol/L),1.68,-log(M),Train,,-,,-,,,,-
BrCCBr,106-93-4,-,288,"1,2-dibromoethane",A171,10850781,-,-,-1.68,log(mol/L),1.68,-log(M),Train,,-,,-,,,,-
O=C(O)C1=C(OC)C(Cl)=CC=C1Cl,1918-00-9,-,289,dicamba,A171,10850781,-,-,-1.7,log(mol/L),1.7,-log(M),Train,,-,,-,,,,-
CCNC1=CC=CC=C1,103-69-5,-,290,n-ethylaniline,A171,10850781,-,-,-1.7,log(mol/L),1.7,-log(M),Train,,-,,-,,,,-
CCCCCCC=O,111-71-7,-,291,heptanal,A171,10850781,-,-,-1.7,log(mol/L),1.7,-log(M),Train,,-,,-,,,,-
FC(F)(F)C(Cl)Br,151-67-7,-,292,Halothane,A171,10850781,-,-,-1.71,log(mol/L),1.71,-log(M),Train,,-,,-,,,,-
O=C1NC(C(C(N1)=O)(C(C)C)CC=C)=O,77-02-1,-,293,aprobarbital,A171,10850781,-,-,-1.71,log(mol/L),1.71,-log(M),Train,,-,,-,,,,-
CC(O)(C)CCCCC,625-25-2,-,294,2-methyl-2-heptanol,A171,10850781,-,-,-1.72,log(mol/L),1.72,-log(M),Train,,-,,-,,,,-
CC(O)C(C)CCCC,31367-46-1,-,295,3-methyl-2-heptanol,A171,10850781,-,-,-1.72,log(mol/L),1.72,-log(M),Train,,-,,-,,,,-
O=C1C=CC(C2=CC(=CC=C2O)O)(C=C1)O,106-34-3,-,296,quinhydrone,A171,10850781,-,-,-1.73,log(mol/L),1.73,-log(M),Train,,-,,-,,,,-
BrCCC,106-94-5,-,297,1-bromopropane,A171,10850781,-,-,-1.73,log(mol/L),1.73,-log(M),Train,,-,,-,,,,-
OC1=CC=CC=C1N(=O)=O,88-75-5,-,298,2-nitrophenol,A171,10850781,-,-,-1.74,log(mol/L),1.74,-log(M),Train,,-,,-,,,,-
ClC(Cl)C(Cl)Cl,79-34-5,-,299,"1,1,2,2-Tetrachloroethane",A171,10850781,-,-,-1.74,log(mol/L),1.74,-log(M),Train,,-,,-,,,,-
NS(=O)(C1=CC=C(C)C=C1)=O,70-55-3,-,300,4-toluenesulfonamide,A171,10850781,-,-,-1.74,log(mol/L),1.74,-log(M),Train,,-,,-,,,,-
CCCCC(OCC)=O,539-82-2,-,301,ethyl valerate,A171,10850781,-,-,-1.75,log(mol/L),1.75,-log(M),Train,,-,,-,,,,-
CSC1=NC=NC=2N=CC=NC12,-,-,302,2-methylthiopteridine,A171,10850781,-,-,-1.76,log(mol/L),1.76,-log(M),Train,,-,,-,,,,-
NC(C1=CC=CC=C1O)=O,65-45-2,-,303,salicylamide,A171,10850781,-,-,-1.76,log(mol/L),1.76,-log(M),Train,,-,,-,,,,-
CC1=C(NC(CN(CC)CC)=O)C(C)=CC=C1,137-58-6,-,304,lidocaine,A171,10850781,-,-,-1.76,log(mol/L),1.76,-log(M),Train,,-,,-,,,,-
CC=CC=CC(O)=O,110-44-1,-,305,sorbic acid,A171,10850781,-,-,-1.77,log(mol/L),1.77,-log(M),Train,,-,,-,,,,-
NC(NC1=CC=CC=C1)=S,103-85-5,-,306,1-phenylthiourea,A171,10850781,-,-,-1.77,log(mol/L),1.77,-log(M),Train,,-,,-,,,,-
O=C1CSC(N1)=S,141-84-4,-,307,rhodanine,A171,10850781,-,-,-1.77,log(mol/L),1.77,-log(M),Train,,-,,-,,,,-
OC1=CC=C(C(OC)=O)C=C1,99-76-3,-,308,methyl-4-hydroxybenzoate,A171,10850781,-,-,-1.78,log(mol/L),1.78,-log(M),Train,,-,,-,,,,-
O=C(OCCC)C1=CC(O)=C(O)C(O)=C1,121-79-9,-,309,propyl gallate,A171,10850781,-,-,-1.78,log(mol/L),1.78,-log(M),Train,,-,,-,,,,-
CC(NC1=CC=C(C=C1)F)=O,351-83-7,-,310,4-fluoroacetanilide,A171,10850781,-,-,-1.78,log(mol/L),1.78,-log(M),Train,,-,,-,,,,-
O=N(=O)C1=CC=CC=C1,98-95-3,-,311,nitrobenzene,A171,10850781,-,-,-1.8,log(mol/L),1.8,-log(M),Train,,-,,-,,,,-
O=C(NC)OC1=CC(C)=CC=C1,1129-41-5,-,312,m-tolyl methylcarbamate,A171,10850781,-,-,-1.8,log(mol/L),1.8,-log(M),Train,,-,,-,,,,-
FC1=CC=CC=C1,462-06-6,-,313,fluorobenzene,A171,10850781,-,-,-1.8,log(mol/L),1.8,-log(M),Train,,-,,-,,,,-
CCCCCCCO,111-70-6,-,314,1-heptanol,A171,10850781,-,-,-1.81,log(mol/L),1.81,-log(M),Train,,-,,-,,,,-
OC1=CC=CC=C1C(O)=O,69-72-7,-,315,Salicylic acid,A171,10850781,-,-,-1.82,log(mol/L),1.82,-log(M),Train,,-,,-,,,,-
O=C(C1=CC=CC=C1)CC,93-55-0,-,316,propiophenone,A171,10850781,-,-,-1.83,log(mol/L),1.83,-log(M),Train,,-,,-,,,,-
CC(N=C1SC(S(N)(=O)=O)=NN1C)=O,554-57-4,-,317,methazolamide,A171,10850781,-,-,-1.83,log(mol/L),1.83,-log(M),Train,,-,,-,,,,-
CC12C(O)C=CC3(OC1=O)C2C(C(O)=O)C45CC(=C)C(CCC43)(O)C5,77-06-5,-,318,gibberellic acid,A171,10850781,-,-,-1.84,log(mol/L),1.84,-log(M),Train,,-,,-,,,,-
CCCCOCCCC,142-96-1,-,319,dibutyl ether,A171,10850781,-,-,-1.85,log(mol/L),1.85,-log(M),Train,,-,,-,,,,-
COC1=CC=CC=C1,100-66-3,-,320,anisole,A171,10850781,-,-,-1.85,log(mol/L),1.85,-log(M),Train,,-,,-,,,,-
O=C(O)C(CCC)CCC,99-66-1,-,321,Valproic acid,A171,10850781,-,-,-1.86,log(mol/L),1.86,-log(M),Train,,-,,-,,,,-
C1=C(OC)C(O)=C2C34CCN(C(C4C=CC(C3)=O)CC2=C1)C,467-98-1,-,322,thebainone a,A171,10850781,-,-,-1.87,log(mol/L),1.87,-log(M),Train,,-,,-,,,,-
O=C1CC(C)CCC1,591-24-2,-,323,3-methylcyclohexanone,A171,10850781,-,-,-1.87,log(mol/L),1.87,-log(M),Train,,-,,-,,,,-
C12CCCCN1CC3C4CCCCN4CC2C3,90-39-1,-,324,sparteine,A171,10850781,-,-,-1.89,log(mol/L),1.89,-log(M),Train,,-,,-,,,,-
O=C(OCCCCC)C,628-63-7,-,325,amyl acetate,A171,10850781,-,-,-1.89,log(mol/L),1.89,-log(M),Train,,-,,-,,,,-
O=C(OCC)C1(C2=CC=CC=C2)CCN(C)CC1,57-42-1,-,326,meperidine,A171,10850781,-,-,-1.89,log(mol/L),1.89,-log(M),Train,,-,,-,,,,-
COC1=C2C(=O)OCC2=CC=C1OC,569-31-3,-,327,meconin,A171,10850781,-,-,-1.89,log(mol/L),1.89,-log(M),Train,,-,,-,,,,-
O=C(O)CCCCCCCC(O)=O,123-99-9,-,328,azelaic acid,A171,10850781,-,-,-1.89,log(mol/L),1.89,-log(M),Train,,-,,-,,,,-
ClC(Br)Br,124-48-1,-,329,chlorodibromomethane,A171,10850781,-,-,-1.9,log(mol/L),1.9,-log(M),Train,,-,,-,,,,-
C(Br)(Br)Br,75-25-2,-,330,bromoform,A171,10850781,-,-,-1.91,log(mol/L),1.91,-log(M),Train,,-,,-,,,,-
CN1C2CCC1CC(OC(C(CO)C3=CC=CC=C3)=O)C2,101-31-5,-,331,hyoscyamine,A171,10850781,-,-,-1.91,log(mol/L),1.91,-log(M),Train,,-,,-,,,,-
CC(NC1=CC=C(C=C1)OC(C)=O)=O,2623-33-8,-,332,p-acetoxy-acetanilide,A171,10850781,-,-,-1.91,log(mol/L),1.91,-log(M),Train,,-,,-,,,,-
C(CCC)(=O)OCCC,105-66-8,-,333,propyl butyrate,A171,10850781,-,-,-1.92,log(mol/L),1.92,-log(M),Train,,-,,-,,,,-
OC(=O)C1=C(C=O)C=CC(OC)=C1OC,519-05-1,-,334,opianic acid,A171,10850781,-,-,-1.92,log(mol/L),1.92,-log(M),Train,,-,,-,,,,-
NC(OCCCCCC)=O,2114-20-7,-,335,n-hexyl carbamate,A171,10850781,-,-,-1.92,log(mol/L),1.92,-log(M),Train,,-,,-,,,,-
CN(C)C1=CC=CC=C1,121-69-7,-,336,"n,n-dimethylaniline",A171,10850781,-,-,-1.92,log(mol/L),1.92,-log(M),Train,,-,,-,,,,-
O=C(CC)NC1=CC=CC=C1,620-71-3,-,337,propionanilide,A171,10850781,-,-,-1.92,log(mol/L),1.92,-log(M),Train,,-,,-,,,,-
CC(OCCC(C)C)=O,123-92-2,-,338,isoamyl acetate,A171,10850781,-,-,-1.92,log(mol/L),1.92,-log(M),Train,,-,,-,,,,-
C1(=O)NC(=O)NC(C(=O)O)=C1,65-86-1,-,339,orotic acid,A171,10850781,-,-,-1.93,log(mol/L),1.93,-log(M),Train,,-,,-,,,,-
OC(C1=CC=CC=C1)C(C2=CC=CC=C2)O,27134-24-3,-,340,hydrobenzoin,A171,10850781,-,-,-1.93,log(mol/L),1.93,-log(M),Train,,-,,-,,,,-
CCC1=NN=C(NS(=O)(=O)C2=CC=C(N)C=C2)S1,94-19-9,-,341,sulfaethidole,A171,10850781,-,-,-1.94,log(mol/L),1.94,-log(M),Train,,-,,-,,,,-
CC1=CC=C2C(=C1)N=C(C=C2)C,93-37-8,-,342,"2,7-dimethylquinoline",A171,10850781,-,-,-1.94,log(mol/L),1.94,-log(M),Train,,-,,-,,,,-
CN(C)C1=NC(C)=C(C)C(OC(N(C)C)=O)=N1,23103-98-2,-,343,Pirimicarb,A171,10850781,-,-,-1.95,log(mol/L),1.95,-log(M),Train,,-,,-,,,,-
COC1=CC=CC=C1N(=O)=O,91-23-6,-,344,2-nitroanisole,A171,10850781,-,-,-1.96,log(mol/L),1.96,-log(M),Train,,-,,-,,,,-
O=C(O)C=CC1=CNC=N1,104-98-3,-,345,urocanic acid,A171,10850781,-,-,-1.96,log(mol/L),1.96,-log(M),Train,,-,,-,,,,-
CC(Cl)CC,78-86-4,-,346,2-chlorobutane,A171,10850781,-,-,-1.96,log(mol/L),1.96,-log(M),Train,,-,,-,,,,-
NC1=CC=CC=C1N(=O)=O,88-74-4,-,347,2-nitroaniline,A171,10850781,-,-,-1.96,log(mol/L),1.96,-log(M),Train,,-,,-,,,,-
C1=CCC=CC1,628-41-1,-,348,"1,4-cyclohexadiene",A171,10850781,-,-,-1.97,log(mol/L),1.97,-log(M),Train,,-,,-,,,,-
C1CCN(CC1)C2=NC(=N)N(C(=C2)N)O,38304-91-5,-,349,Minoxidil,A171,10850781,-,,-1.98,log(mol/L),1.98,-log(M),Train,,-,,-,,,,-
OC1=CC=C2C(=C1)CCCC2,1125-78-6,-,350,"5,6,7,8-tetrahydro-2-naphthol",A171,10850781,-,-,-1.99,log(mol/L),1.99,-log(M),Train,,-,,-,,,,-
CC(Cl)(Cl)Cl,71-55-6,-,351,"1,1,1-Trichloroethane",A171,10850781,-,-,-2.0,log(mol/L),2.0,-log(M),Train,,-,,-,,,,-
CC1=CC=CC=C1S(N)(=O)=O,88-19-7,-,352,2-toluenesulfonamide,A171,10850781,-,-,-2.02,log(mol/L),2.02,-log(M),Train,,-,,-,,,,-
ClCCCC,109-69-3,-,353,1-Chlorobutane,A171,10850781,-,-,-2.03,log(mol/L),2.03,-log(M),Train,,-,,-,,,,-
CC(CCCCCC)=O,111-13-7,-,354,2-octanone,A171,10850781,-,-,-2.05,log(mol/L),2.05,-log(M),Train,,-,,-,,,,-
O=C(NC)OC1=CC=CC=C1OC(C)C,114-26-1,-,355,propoxur,A171,10850781,-,-,-2.05,log(mol/L),2.05,-log(M),Train,,-,,-,,,,-
O=S(C1=CC=C(C(C)=O)C=C1)(NC(NC2CCCCC2)=O)=O,968-81-0,-,356,acetohexamide,A171,10850781,-,-,-2.06,log(mol/L),2.06,-log(M),Train,,-,,-,,,,-
C=C(C(O)=O)C1=CC=CC=C1,492-38-6,-,357,atropic acid,A171,10850781,-,-,-2.06,log(mol/L),2.06,-log(M),Train,,-,,-,,,,-
CC1=CCC(C(C)=C)CC1=O,2244-16-8,-,358,l-carvone,A171,10850781,-,-,-2.06,log(mol/L),2.06,-log(M),Train,,-,,-,,,,-
O=C(C1=CC=CC=C1C)O,118-90-1,-,359,o-toluic acid,A171,10850781,-,-,-2.06,log(mol/L),2.06,-log(M),Train,,-,,-,,,,-
OC1CCN2C1=NC=3C(C2=O)=CC=CC3,486-64-6,-,360,vasicinone,A171,10850781,-,,-2.07,log(mol/L),2.07,-log(M),Train,,-,,-,,,,-
OC(CC1=CNC2=C1C=CC=C2)=O,87-51-4,-,361,indole-3-acetic acid,A171,10850781,-,-,-2.07,log(mol/L),2.07,-log(M),Train,,-,,-,,,,-
CC(C1=CC(O)=C(C)C=C1)C,499-75-2,-,362,carvacrol,A171,10850781,-,-,-2.08,log(mol/L),2.08,-log(M),Train,,-,,-,,,,-
CC(NC1=CC(C)=CC=C1)=O,537-92-8,-,363,3-methylacetanilide,A171,10850781,-,-,-2.09,log(mol/L),2.09,-log(M),Train,,-,,-,,,,-
O=C(N(C)C)OC1=CC(C)=NN1C2=CC=CC=C2,87-47-8,-,364,pyrolan,A171,10850781,-,-,-2.09,log(mol/L),2.09,-log(M),Train,,-,,-,,,,-
CC(I)C,75-30-9,-,365,2-iodopropane,A171,10850781,-,-,-2.09,log(mol/L),2.09,-log(M),Train,,-,,-,,,,-
C=CCC=C,591-93-5,-,366,"1,4-pentadiene",A171,10850781,-,-,-2.09,log(mol/L),2.09,-log(M),Train,,-,,-,,,,-
CC(O)CCCCCC,123-96-6,-,367,2-octanol,A171,10850781,-,-,-2.09,log(mol/L),2.09,-log(M),Train,,-,,-,,,,-
O=C1CC2OCC=C3C4CC5C6(C(N1C7=C6C=C(OC)C(OC)=C7)C24)CCN5C3,357-57-3,-,368,brucine,A171,10850781,-,-,-2.09,log(mol/L),2.09,-log(M),Train,,-,,-,,,,-
OCC1=C(Cl)C=CC=C1Cl,15258-73-8,-,369,"2,6-dichlorobenzyl alcohol",A171,10850781,-,-,-2.1,log(mol/L),2.1,-log(M),Train,,-,,-,,,,-
OCC(CC)CCCC,104-76-7,-,370,2-ethyl-1-hexanol,A171,10850781,-,-,-2.11,log(mol/L),2.11,-log(M),Train,,-,,-,,,,-
OC(C1=CC=CC=C1C(O)=O)=O,88-99-3,-,371,o-phthalic acid,A171,10850781,-,-,-2.11,log(mol/L),2.11,-log(M),Train,,-,,-,,,,-
CN1C2CCC1CC(OC(C(CO)C3=CC=CC=C3)=O)C2,51-55-8,-,372,Atropine,A171,10850781,-,-,-2.12,log(mol/L),2.12,-log(M),Train,,-,,-,,,,-
SC1=CC=CC=C1,108-98-5,-,373,thiophenol,A171,10850781,-,-,-2.12,log(mol/L),2.12,-log(M),Train,,-,,-,,,,-
NC1=NC=NC2=C1N=CN2,73-24-5,-,374,adenine,A171,10850781,-,-,-2.12,log(mol/L),2.12,-log(M),Train,,-,,-,,,,-