SMILES,CASRN,EXTERNALID,N,NAME,ARTICLEID,PUBMEDID,PAGE,TABLE,Solubility_log(mol/L),UNIT {Water solubility},"Water solubility {measured, converted}",UNIT {Water solubility}.1,Dataset,Temperature,UNIT {Temperature},Ionic strength,UNIT {Ionic strength},comment (chemical),source,pH,UNIT {pH}
FC(F)(Cl)C,75-68-3,-,-,"1-CHLORO-1,1-DIFLUOROETHANE",A2330,-,-,-,1400.0,mg/L,1.856,-log(M),,25.0,?C,,-,,,,-
C(F)(F)(F)F,75-73-0,-,-,Tetrafluoromethane,A2330,-,-,-,18.8,mg/L,3.67,-log(M),,25.0,?C,,-,,,,-
FC(F)(F)CCl,75-88-7,-,-,"1,1,1-TRIFLUORO-2-CHLOROETHANE",A2330,-,-,-,9200.0,mg/L,1.11,-log(M),,25.0,?C,,-,,,,-
FC(F)(F)CO,75-89-8,-,-,"2,2,2-Trifluoroethanol",A2330,-,-,-,1000000.0,mg/L,-0.9998,-log(M),,25.0,?C,,-,,,,-
O=C(O)C(F)(F)Cl,76-04-0,-,-,"Acetic acid, chlorodifluoro-",A2330,-,-,-,1000000.0,mg/L,-0.8845,-log(M),,25.0,?C,,-,,,,-
O=C(O)C(F)(F)F,76-05-1,-,-,Trifluoroacetic acid,A2330,-,-,-,1000000.0,mg/L,-0.943,-log(M),,20.0,?C,,-,,,,-
FC(F)(C(Cl)(Cl)Cl)Cl,76-11-9,-,-,"1,1,1,2-TETRACHLORO-2,2-DIFLUOROETHANE",A2330,-,-,-,100.0,mg/L,3.309,-log(M),,25.0,?C,,-,,,,-
FC(F)(C(F)(Cl)Cl)Cl,76-13-1,-,-,"1,1,2-trichlorotrifluoroethane",A2330,-,-,-,170.0,mg/L,3.042,-log(M),,25.0,?C,,-,,,,-
FC(F)(C(F)(F)Cl)Cl,76-14-2,-,-,"1,2-dichlorotetrafluoroethane",A2330,-,-,-,130.0,mg/L,3.119,-log(M),,25.0,?C,,-,,,,-
FC(F)(F)C(F)(F)Cl,76-15-3,-,-,Chloropentafluoroethane,A2330,-,-,-,58.0,mg/L,3.425,-log(M),,25.0,?C,,-,,,,-
C(C(F)(F)F)(F)(F)F,76-16-4,-,-,HEXAFLUOROETHANE,A2330,-,-,-,7.78,mg/L,4.249,-log(M),,25.0,?C,,-,,,,-
FC(F)(C(F)(F)F)C(F)(F)F,76-19-7,-,-,OCTAFLUOROPROPANE,A2330,-,-,-,5.7,mg/L,4.518,-log(M),,15.0,?C,,-,,,,-
COC(F)(F)C(Cl)Cl,76-38-0,-,-,Methoxyflurane,A2330,-,-,-,28300.0,mg/L,0.7656,-log(M),,37.0,?C,,-,,,,-
C1(C(C(F)(F)C1(F)F)(F)F)(F)F,115-25-3,-,-,PERFLUOROCYCLOBUTANE,A2330,-,-,-,23.6,mg/L,3.928,-log(M),,25.0,?C,,-,,,,-
FC(F)=C(F)F,116-14-3,-,-,Tetrafluoroethylene,A2330,-,-,-,159.0,mg/L,2.799,-log(M),,25.0,?C,,-,,,,-
C(F)(F)(F)C(F)Br,124-72-1,-,-,"2-Bromo-1,1,1,2-tetrafluoroethane",A2330,-,-,-,2270.0,mg/L,1.901,-log(M),,37.0,?C,,-,,,,-
FC(F)(Br)C(F)(F)Br,124-73-2,-,-,"1,2-DIBROMOTETRAFLUOROETHANE",A2330,-,-,-,3.0,mg/L,4.938,-log(M),,25.0,?C,,-,,,,-
FC(F)(F)C(Cl)Br,151-67-7,-,-,Halothane,A2330,-,-,-,4070.0,mg/L,1.686,-log(M),,25.0,?C,,-,,,,-
FC(F)(F)C(Cl)Cl,306-83-2,-,-,"1,1,1-Trifluoro-2,2-dichloroethane",A2330,-,-,-,2100.0,mg/L,1.862,-log(M),,25.0,?C,,-,,,,-
O=C(O)C(F)F,381-73-7,-,-,"Acetic acid, difluoro-",A2330,-,-,-,1000000.0,mg/L,-1.018,-log(M),,25.0,?C,,-,,,,-
FC(F)(Cl)CCl,1649-08-7,-,-,"1,2-DICHLORO-1,1-DIFLUOROETHANE",A2330,-,-,-,850.0,mg/L,2.201,-log(M),,24.0,?C,,-,,,,-
ClC(F)C(F)(F)F,2837-89-0,-,-,"1-Chloro-1,2,2,2-Tetrafluoroethane",A2330,-,-,-,1500.0,mg/L,1.959,-log(M),,25.0,?C,,-,,,,-
FC(F)OC(F)(F)C(F)Cl,13838-16-9,-,-,ETHRANE [HALOETHER],A2330,-,-,-,5620.0,mg/L,1.516,-log(M),,37.0,?C,,-,,,,-
[Na+].FC(F)(C(F)F)C([O-])=O,22898-01-7,-,-,"Propanoic acid, 2,2,3,3-tetrafluoro-, sodium sal",A2330,-,-,-,22000.0,mg/L,0.8829,-log(M),,20.0,?C,,-,,,,-
FC(F)OC(Cl)C(F)(F)F,26675-46-7,-,-,Isoflurane,A2330,-,-,-,4470.0,mg/L,1.616,-log(M),,37.0,?C,,-,,,,-
O=C(OCC)CC(=O)C(F)(F)F,372-31-6,-,-,"Butanoic acid, 4,4,4-trifluoro-3-oxo-, ethyl est",A2330,-,-,-,8000.0,mg/L,1.362,-log(M),,,-,,-,,,,-
FB(F)F,7637-07-2,-,-,Boron fluoride,A2330,-,-,-,3320000.0,mg/L,-1.69,-log(M),,0.0,?C,,-,,,,-
O=C(C1=CC(=CC=C1O)N2N=C3C=CC=CC3=N2)O,6245-33-6,-,-,"Salicylic acid, 5-(2H-benzotriazol-2-yl)-",A2330,-,-,-,250.0,mg/L,3.009,-log(M),,15.0,?C,,-,,,,-
CCOP(=S)(OCC)OC1=NN(C(C)C)C(Cl)=N1,42509-80-8,-,-,Isazofos,A2330,-,-,-,69.0,mg/L,3.658,-log(M),,20.0,?C,,-,,,,-
ClC1=CC(Cl)=CC=C1N=C(SCC2=CC=C(Cl)C=C2)CN3N=CN=C3,86598-92-7,-,-,Imibenconazole,A2330,-,-,-,1.7,mg/L,5.384,-log(M),,20.0,?C,,-,,,,-
C1=CC(Cl)=CC=C1C(C#N)(CCCC)CN2N=CN=C2,88671-89-0,-,-,MYCLOBUTANIL,A2330,-,-,-,142.0,mg/L,3.308,-log(M),,25.0,?C,,-,,,,-
CCOC(=O)CSC1=NC(C(C)(C)C)=NN1C(=O)N(C)C,112143-82-5,-,-,Triazamate,A2330,-,-,-,433.0,mg/L,2.861,-log(M),,25.0,?C,,-,,,,-
FC1=CC=C2N=C(N3N=CN=C3)N(C4=CC=C(Cl)C=C4Cl)C(=O)C2=C1,136426-54-5,-,-,Fluquinconazole,A2330,-,-,-,1.0,mg/L,5.575,-log(M),,20.0,?C,,-,,,,-
C1(=C(C(=C(C(Br)=C1Br)Br)Br)Br)Br,87-82-1,-,-,hexabromobenzene,A2330,-,-,-,1.6E-4,mg/L,9.537,-log(M),,25.0,?C,,-,,,,-
O=C(O)C1=C(C=CC=C1)Br,88-65-3,-,-,O-BROMOBENZOIC ACID,A2330,-,-,-,1860.0,mg/L,2.034,-log(M),,25.0,?C,,-,,,,-
C1(=CC=C(Br)C=C1)Br,106-37-6,-,-,"1,4-dibromobenzene",A2330,-,-,-,20.0,mg/L,4.072,-log(M),,25.0,?C,,-,,,,-
C1(=CC=C(C=C1)Br)C,106-38-7,-,-,p-bromotoluene,A2330,-,-,-,110.0,mg/L,3.192,-log(M),,25.0,?C,,-,,,,-
C1(=CC=C(C=C1)Br)Cl,106-39-8,-,-,p-Bromochlorobenzene,A2330,-,-,-,44.9,mg/L,3.63,-log(M),,25.0,?C,,-,,,,-
OC1=CC=C(Br)C=C1,106-41-2,-,-,p-Bromophenol,A2330,-,-,-,14000.0,mg/L,1.092,-log(M),,25.0,?C,,-,,,,-
C1(=CC=CC(Br)=C1)Br,108-36-1,-,-,m-Dibromobenzene,A2330,-,-,-,67.5,mg/L,3.543,-log(M),,35.0,?C,,-,,,,-
C1(=CC=CC(Br)=C1)Cl,108-37-2,-,-,m-Bromochlorobenzene,A2330,-,-,-,118.0,mg/L,3.21,-log(M),,25.0,?C,,-,,,,-
C1(=CC=CC=C1)Br,108-86-1,-,-,bromobenzene,A2330,-,-,-,446.0,mg/L,2.547,-log(M),,30.0,?C,,-,,,,-
OC1=C(C=C(C=C1Br)Br)Br,118-79-6,-,-,"2,4,6-Tribromophenol",A2330,-,-,-,70.0,mg/L,3.674,-log(M),,15.0,?C,,-,,,,-
C1=C(Br)C(O)=C(Br)C=C1CC(N)C(=O)O,300-38-9,-,-,"L-Tyrosine, 3,5-dibromo-",A2330,-,-,-,4000.0,mg/L,1.928,-log(M),,25.0,?C,,-,,,,-
C1(=C(C=CC=C1)Br)Br,583-53-9,-,-,o-Dibromobenzene,A2330,-,-,-,74.6,mg/L,3.5,-log(M),,25.0,?C,,-,,,,-
O=C(O)C1=CC=CC(Br)=C1,585-76-2,-,-,m-Bromobenzoic acid,A2330,-,-,-,402.0,mg/L,2.699,-log(M),,25.0,?C,,-,,,,-
O=N(=O)C1=CC=CC(Br)=C1,585-79-5,-,-,3-Bromo-1-nitrobenzene,A2330,-,-,-,10000.0,mg/L,1.305,-log(M),,25.0,?C,,-,,,,-
O=C(C1=CC=C(C=C1Br)C(=O)O)O,586-35-6,-,-,"1,4-Benzenedicarboxylic acid, 2-bromo-",A2330,-,-,-,1800.0,mg/L,2.134,-log(M),,24.0,?C,,-,,,,-
O=C(C1=CC=C(Br)C=C1)O,586-76-5,-,-,P-BROMOBENZOIC ACID,A2330,-,-,-,60.0,mg/L,3.525,-log(M),,,-,,-,,,,-
C1(=CC=C(C=C1)Br)I,589-87-7,-,-,4-BROMOIODOBENZENE,A2330,-,-,-,7.79,mg/L,4.56,-log(M),,25.0,?C,,-,,,,-
C1(=CC=CC(Br)=C1)C,591-17-3,-,-,m-bromotoluene,A2330,-,-,-,51.3,mg/L,3.523,-log(M),,,-,,-,,,,-
OC1=CC=CC(Br)=C1,591-20-8,-,-,m-Bromophenol,A2330,-,-,-,23000.0,mg/L,0.8763,-log(M),,25.0,?C,,-,,,,-
OC(=O)C1=C(Br)C(O)=C(O)C(O)=C1Br,602-92-6,-,-,"Benzoic acid, 2,6-dibromo-3,4,5-trihydroxy-",A2330,-,-,-,125000.0,mg/L,0.4188,-log(M),,,-,,-,,,,-
BrC1=C(C=CC=C1Br)Br,608-21-9,-,-,"1,2,3-tribromobenzene",A2330,-,-,-,2.87,mg/L,5.04,-log(M),,25.0,?C,,-,,,,-
C1(=CC=C(C(Br)=C1)Br)Br,615-54-3,-,-,"1,2,4-tribromobenzene",A2330,-,-,-,4.9,mg/L,4.808,-log(M),,25.0,?C,,-,,,,-
OC1=C(C=C(C=C1)Br)Br,615-58-7,-,-,"2,4-Dibromophenol",A2330,-,-,-,1900.0,mg/L,2.122,-log(M),,15.0,?C,,-,,,,-
C1(=CC(=CC(Br)=C1)Br)Br,626-39-1,-,-,"1,3,5-Tribromobenzene",A2330,-,-,-,0.79,mg/L,5.6,-log(M),,25.0,?C,,-,,,,-
O=C(C1=C(C=C(C=C1Br)Br)Br)O,633-12-5,-,-,"Benzoic acid, 2,4,6-tribromo-",A2330,-,-,-,3500.0,mg/L,2.011,-log(M),,15.0,?C,,-,,,,-
C1(=C(C=C(C(Br)=C1)Br)Br)Br,636-28-2,-,-,"1,2,4,5-Tetrabromobenzene",A2330,-,-,-,0.04,mg/L,6.993,-log(M),,25.0,?C,,-,,,,-
C1(=C(C=CC=C1)Br)Cl,694-80-4,-,-,2-BROMOCHLOROBENZENE,A2330,-,-,-,44.9,mg/L,3.63,-log(M),,25.0,?C,,-,,,,-
OCC1=CC=C(Br)C=C1,873-75-6,-,-,"Benzenemethanol, 4-bromo-",A2330,-,-,-,2200.0,mg/L,1.929,-log(M),,20.0,?C,,-,,,,-
FC1=C(C=CC=C1)Br,1072-85-1,-,-,1-Bromo-2-fluorobenzene,A2330,-,-,-,353.0,mg/L,2.695,-log(M),,25.0,?C,,-,,,,-
FC1=CC=CC(Br)=C1,1073-06-9,-,-,m-Bromofluorobenzene,A2330,-,-,-,378.0,mg/L,2.666,-log(M),,25.0,?C,,-,,,,-
O(C1=C(C(=C(C(Br)=C1Br)Br)Br)Br)C2=C(C(=C(C(Br)=C2Br)Br)Br)Br,1163-19-5,-,-,Decabromodiphenyl ether,A2330,-,-,-,1.0E-4,mg/L,9.982,-log(M),,25.0,?C,,-,,,,-
OC(=O)C1=CC(Br)=CC=C1OC(=O)C,1503-53-3,-,-,2-(Acetyloxy)-4-bromo-benzoic acid,A2330,-,-,-,667.0,mg/L,2.589,-log(M),,,-,,-,,,,-
O=S(=O)(C1=CC(=CC=C1N)Br)O,1576-59-6,-,-,"Benzenesulfonic acid, 2-amino-5-bromo-",A2330,-,-,-,595.0,mg/L,2.627,-log(M),,22.0,?C,,-,,,,-
OC1=C(Br)C=C(C#N)C=C1Br,1689-84-5,-,-,bromoxynil,A2330,-,-,-,130.0,mg/L,3.328,-log(M),,25.0,?C,,-,,,,-
O=C(OC1=C(C=C(C#N)C=C1Br)Br)CCCCCCC,1689-99-2,-,-,BROMOXYNIL OCTANOATE,A2330,-,-,-,0.08,mg/L,6.702,-log(M),,25.0,?C,,-,,,,-
O=CC1=C(O)C=CC(=C1)Br,1761-61-1,-,-,"Benzaldehyde, 5-bromo-2-hydroxy-",A2330,-,-,-,100.0,mg/L,3.303,-log(M),,15.0,?C,,-,,,,-
NC(=O)NC1=CC=C(Br)C=C1,1967-25-5,-,-,P-BROMOPHENYLUREA,A2330,-,-,-,5000.0,mg/L,1.634,-log(M),,25.0,?C,,-,,,,-
CCC1=CC=CC=C1Br,1973-22-4,-,-,1-Bromo-2-ethylbenzene,A2330,-,-,-,39.6,mg/L,3.67,-log(M),,25.0,?C,,-,,,,-
C1=CC(Br)=CC=C1N=C=S,1985-12-2,-,-,p-Bromophenyl isothiocyanate,A2330,-,-,-,116000.0,mg/L,0.2661,-log(M),,25.0,?C,,-,,,,-
COP(=S)(OC)OC1=CC(Cl)=C(Br)C=C1Cl,2104-96-3,-,-,bromophos,A2330,-,-,-,0.3,mg/L,6.086,-log(M),,20.0,?C,,-,,,,-
C1=C(Br)C=C(N=C=S)C=C1,2131-59-1,-,-,"BENZENE, 1-BROMO-3-ISOTHIOCYANATO-",A2330,-,-,-,17.6,mg/L,4.085,-log(M),,25.0,?C,,-,,,,-
O=C(C1=CC=CC=C1C(=O)O)C2=CC=C(C=C2)Br,2159-40-2,-,-,"Benzoic acid, 2-(4-bromobenzoyl)-",A2330,-,-,-,300.0,mg/L,3.007,-log(M),,30.0,?C,,-,,,,-
C1=C(O)C(CO)=CC(Br)=C1,2316-64-5,-,-,"Benzenemethanol, 5-bromo-2-hydroxy-",A2330,-,-,-,126000.0,mg/L,0.2072,-log(M),,25.0,?C,,-,,,,-
BrC1=CC(=CC=C1O)C=O,2973-78-6,-,-,"Benzaldehyde, 3-bromo-4-hydroxy-",A2330,-,-,-,1330.0,mg/L,2.179,-log(M),,25.0,?C,,-,,,,-
CON(C)C(=O)NC1=CC=C(Br)C=C1,3060-89-7,-,-,Metobromuron,A2330,-,-,-,330.0,mg/L,2.895,-log(M),,20.0,?C,,-,,,,-
CN(CC1=CC(Br)=CC(Br)=C1N)C2CCCCC2,3572-43-8,-,-,"2-amino-3,5-dibromo-N-cyclohexyl-N-methylbenzene",A2330,-,-,-,4000.0,mg/L,1.973,-log(M),,,-,,-,,,,-
CCOP(=S)(OCC)OC1=CC(Cl)=C(Br)C=C1Cl,4824-78-6,-,-,Bromophos ethyl,A2330,-,-,-,0.44,mg/L,5.952,-log(M),,20.0,?C,,-,,,,-
N(=O)(=O)C1=CC=C(C(=C1)Br)O,5847-59-6,-,-,2-BROMO-4-NITROPHENOL,A2330,-,-,-,22000.0,mg/L,0.996,-log(M),,100.0,?C,,-,,,,-
N(=O)(=O)C1=C(C=CC(=C1)C(=O)O)Br,6319-40-0,-,-,"Benzoic acid, 4-bromo-3-nitro-",A2330,-,-,-,265.0,mg/L,2.968,-log(M),,25.0,?C,,-,,,,-
CC(C)C1=CC=CC=C1Br,7073-94-1,-,-,"BENZENE, 1-BROMO-2-(1-METHYLETHYL)-",A2330,-,-,-,12.9,mg/L,4.188,-log(M),,25.0,?C,,-,,,,-
C1=C(Br)C(O)=C(Br)C=C1CC(NC(=O)C)C(=O)O,10346-50-6,-,-,"L-Tyrosine, N-acetyl-3,5-dibromo-",A2330,-,-,-,2500.0,mg/L,2.183,-log(M),,25.0,?C,,-,,,,-
NC1=C(Br)C=CC(N(=O)=O)=C1,10403-47-1,-,-,"Benzenamine, 2-bromo-5-nitro-",A2330,-,-,-,60.0,mg/L,3.558,-log(M),,25.0,?C,,-,,,,-
C1=CC(F)=CC=C1C(=O)CCCN2CCC(O)(C3=CC=C(Br)C=C3)CC2,10457-90-6,-,-,Bromperidol,A2330,-,-,-,90.0,mg/L,3.669,-log(M),,,-,,-,,,,-
CON(C)C(=O)NC1=CC=C(Br)C(Cl)=C1,13360-45-7,-,-,Chlorbromuron,A2330,-,-,-,35.0,mg/L,3.924,-log(M),,20.0,?C,,-,,,,-
BrC1=CC=C(C=C1C)O,14472-14-1,-,-,"Phenol, 4-bromo-3-methyl-",A2330,-,-,-,1700.0,mg/L,2.041,-log(M),,19.0,?C,,-,,,,-
C(O)(C1=CC=C(Br)C=C1)(C2=CC=C(Br)C=C2)C(=O)OC(C)C,18181-80-1,-,-,"ISOPROPYL 4,4'DIBROMOBENZILATE",A2330,-,-,-,0.1,mg/L,6.632,-log(M),,20.0,?C,,-,,,,-
OCC1=CC=CC=C1Br,18982-54-2,-,-,"Benzenemethanol, 2-bromo-",A2330,-,-,-,1300.0,mg/L,2.158,-log(M),,20.0,?C,,-,,,,-
OC(=O)C1=C(Cl)C=CC(Br)=C1,21739-92-4,-,-,"Benzoic acid, 5-bromo-2-chloro-",A2330,-,-,-,2630.0,mg/L,1.952,-log(M),,21.0,?C,,-,,,,-
CC(=O)NC1=C(C)C=C(Br)C=C1,24106-05-6,-,-,2-METHYL-4-BROMOACETANILIDE,A2330,-,-,-,4000.0,mg/L,1.756,-log(M),,20.0,?C,,-,,,,-
BrC1=CC=C(Br)C=C1,26249-12-7,-,-,DIBROMOBENZENE,A2330,-,-,-,26.4,mg/L,3.951,-log(M),,35.0,?C,,-,,,,-
BrC1=C(C=C(C(=C1C2=C(C(=CC(=C2Br)Br)Br)Br)Br)Br)Br,27858-07-7,-,-,"1,1'-Biphenyl, ar,ar,ar,ar,ar',ar',ar',ar'-octab",A2330,-,-,-,3.5E-4,mg/L,9.351,-log(M),,25.0,?C,,-,,,,-
BrC1=C(C=CC=C1Br)Br,28779-08-0,-,-,TRIBROMOBENZENE,A2330,-,-,-,40.0,mg/L,3.896,-log(M),,20.0,?C,,-,,,,-
O=C(C1=CC=C(C(=C1)Br)O)OC,29415-97-2,-,-,"Benzoic acid, 3-brom-4-hydroxy-, methyl ester",A2330,-,-,-,158.0,mg/L,3.165,-log(M),,30.0,?C,,-,,,,-
BrC1=CC(=C(C=C1OC2=C(C=C(C=C2)Br)Br)Br)Br,32534-81-9,-,-,DE 71,A2330,-,-,-,9.0E-7,mg/L,11.8,-log(M),,20.0,?C,,-,,,,-
O=C(O)C=CC1=CC=CC(Br)=C1,32862-97-8,-,-,M-BROMOCINNAMIC ACID,A2330,-,-,-,525.0,mg/L,2.636,-log(M),,25.0,?C,,-,,,,-
OC(=O)C1=C(C(=O)O)C(C(=O)O)=CC(Br)=C1,34163-34-3,-,-,"1,2,3-Benzenetricarboxylic acid, 5-bromo-",A2330,-,-,-,10300.0,mg/L,1.448,-log(M),,23.0,?C,,-,,,,-
BrC1=CC(Br)=C(C(Br)=C1)C2=C(Br)C=C(Br)C=C2Br,36355-01-8,-,-,HEXABROMOBIPHENYL,A2330,-,-,-,0.011,mg/L,7.756,-log(M),,25.0,?C,,-,,,,-
BrC1=C(C=C(C=C1Br)OC2=C(C=C(C(=C2)Br)Br)Br)Br,36483-60-0,-,-,"Benzene, 1,1'-oxybis-, hexabromo deriv.",A2330,-,-,-,0.00408,mg/L,8.198,-log(M),,,-,,-,,,,-
O(C1=C(C=C(C=C1Br)Br)Br)CCOC2=C(C=C(C=C2Br)Br)Br,37853-59-1,-,-,"1,2-Bis(2,4,6-tribromophenoxy)ethane",A2330,-,-,-,0.2,mg/L,6.536,-log(M),,25.0,?C,,-,,,,-
OC(=O)COC1=C(Br)C=C(C)C=C1C,38206-98-3,-,-,"Acetic acid, (2-bromo-4,6-dimethylphenoxy)-",A2330,-,-,-,195.0,mg/L,3.123,-log(M),,20.0,?C,,-,,,,-
CCCSP(=O)(OCC)OC1=CC=C(Br)C=C1Cl,41198-08-7,-,-,Profenofos,A2330,-,-,-,28.0,mg/L,4.125,-log(M),,25.0,?C,,-,,,,-
BrC1=CC=C(S(=O)(=O)CC(=O)OC)C=C1,50397-65-4,-,-,"ACETIC ACID, [(4-BROMOPHENYL)SULFONYL]-, METHYL",A2330,-,-,-,971.0,mg/L,2.48,-log(M),,25.0,?C,,-,,,,-
N(=O)(=O)NC1=C(C=CC=C1Br)Br,54381-71-4,-,-,"Benzenamine, 2,6-dibromo-N-nitro-",A2330,-,-,-,715.0,mg/L,2.617,-log(M),,12.0,?C,,-,,,,-
O=S(=O)(C1=C(C=C(C(=C1Br)N)Br)Br)O,58585-89-0,-,-,"Benzenesulfonic acid, 3-amino-2,4,6-tribromo-",A2330,-,-,-,133000.0,mg/L,0.4888,-log(M),,22.0,?C,,-,,,,-
C(F)(F)(F)C1=CC(N(=O)=O)=CC(N(=O)=O)=C1N(C)C2=C(Br)C=C(Br)C=C2Br,63333-35-7,-,-,BROMETHALIN,A2330,-,-,-,0.01,mg/L,7.762,-log(M),,,-,,-,,,,-
BrC1=CC(=C(C=C1C2=C(C=CC(=C2)Br)Br)Br)Br,67888-96-4,-,-,"2,2',4,5,5'-PENTABROMOBIPHENYL",A2330,-,-,-,1.03E-4,mg/L,9.726,-log(M),,25.0,?C,,-,,,,-
O=CC1=C(Br)C=CC(Br)=C1,74553-29-0,-,-,"2,5-Dibromobenzaldehyde",A2330,-,-,-,41.8,mg/L,3.8,-log(M),,25.0,?C,,-,,,,-
OS(=O)(=O)C1=C(Br)C(Br)=C(Br)C(Br)=C1Br,98137-88-3,-,-,"Benzenesulfonic acid, pentabromo-",A2330,-,-,-,5450.0,mg/L,2.006,-log(M),,10.0,?C,,-,,,,-
BrC1=CC=C(C2=CC=C(C3CC(C=4C(C3)=CC=CC4)C=5C(=O)C=6C(SC5O)=CC=CC6)C=C2)C=C1,104653-34-1,-,-,Difethialone,A2330,-,-,-,0.39,mg/L,6.141,-log(M),,25.0,?C,,-,,,,-
C(F)(F)(F)C=1N=C(C)SC1C(=O)NC2=C(Br)C=C(OC(F)(F)F)C=C2Br,130000-40-7,-,-,Thifluzamide,A2330,-,-,-,1.6,mg/L,5.519,-log(M),,20.0,?C,,-,,,,-
C1=CC(OC(F)F)=CC=C1C(C(C)C)C(=O)OC(C#N)C2=CC=CC(OC3=CC=C(Br)C=C3)=C2,160791-64-0,-,-,ZXI 8901,A2330,-,-,-,0.00356,mg/L,8.173,-log(M),,25.0,?C,,-,,,,-
O=CC1=CC(O)=CC(Br)=C1,-,-,-,5-Bromo-3-hydroxybenzaldehyde,A2330,-,-,-,113.0,mg/L,3.25,-log(M),,25.0,?C,,-,,,,-
C1(=CC=C(C=C1)Cl)C(C2=CC=C(C=C2)Cl)C(Cl)(Cl)Cl,50-29-3,-,-,"p,p'-DDT",A2330,-,-,-,0.0055,mg/L,7.809,-log(M),,25.0,?C,,-,,,,-
O(C1=CC=C2N=CC=C(C(O)C3N4CCC(C(C=C)C4)C3)C2=C1)C,56-54-2,-,-,quinidine,A2330,-,-,-,140.0,mg/L,3.365,-log(M),,25.0,?C,,-,,,,-
OCCC1=CC=CC=C1,60-12-8,-,-,2-phenylethanol,A2330,-,-,-,22200.0,mg/L,0.7406,-log(M),,25.0,?C,,-,,,,-
ClC(Cl)=C(C1=CC=C(Cl)C=C1)C2=CC=C(Cl)C=C2,72-55-9,-,-,"P,P'-DDE",A2330,-,-,-,0.04,mg/L,6.9,-log(M),,25.0,?C,,-,,,,-
OC(C=C)(CCC=C(C)C)C,78-70-6,-,-,linalool,A2330,-,-,-,1590.0,mg/L,1.987,-log(M),,25.0,?C,,-,,,,-
OC1=CC=C(C=C1)C(C2=CC=C(O)C=C2)(C)C,80-05-7,-,-,diphenylolpropane,A2330,-,-,-,120.0,mg/L,3.279,-log(M),,25.0,?C,,-,,,,-
O=C(C1=C(C(N(=O)=O)=C(C(N(=O)=O)=C1C)C(C)(C)C)C)C,81-14-1,-,-,Musk ketone,A2330,-,-,-,1.9,mg/L,5.19,-log(M),,,-,,-,,,,-
S=P(OC)(OC)SCN1N=NC2=CC=CC=C2C1=O,86-50-0,-,-,methyl azinphos,A2330,-,-,-,20.9,mg/L,4.181,-log(M),,20.0,?C,,-,,,,-
C12=CC=CC=C1NN=N2,95-14-7,-,-,1H-Benzotriazole,A2330,-,-,-,19800.0,mg/L,0.7793,-log(M),,25.0,?C,,-,,,,-
O(C1=C(O)C=CC(CC=C)=C1)C,97-53-0,-,-,eugenol,A2330,-,-,-,2460.0,mg/L,1.824,-log(M),,25.0,?C,,-,,,,-
FC(F)(F)C1=CC=CC=C1,98-08-8,-,-,benzotrifluoride,A2330,-,-,-,140.0,mg/L,3.019,-log(M),,25.0,?C,,-,,,,-
FC(F)(F)C1=CC=CC(N)=C1,98-16-8,-,-,3-trifluoromethylaniline,A2330,-,-,-,5460.0,mg/L,1.47,-log(M),,25.0,?C,,-,,,,-
OC(C1CCC(=CC1)C)(C)C,98-55-5,-,-,alpha-TERPINEOL,A2330,-,-,-,710.0,mg/L,2.337,-log(M),,25.0,?C,,-,,,,-
O=C1C(=CCC(C(=C)C)C1)C,99-49-0,-,-,Carvone,A2330,-,-,-,1300.0,mg/L,2.063,-log(M),,25.0,?C,,-,,,,-
OCC1=CC=CC=C1,100-51-6,-,-,Benzyl alcohol,A2330,-,-,-,42900.0,mg/L,0.4015,-log(M),,25.0,?C,,-,,,,-
O=C(OCC)C=CC1=CC=CC=C1,103-36-6,-,-,"Cinnamic acid, ethyl ester",A2330,-,-,-,178.0,mg/L,2.996,-log(M),,25.0,?C,,-,,,,-
O=CC=CC1=CC=CC=C1,104-55-2,-,-,3-Phenyl-2-propenal,A2330,-,-,-,1420.0,mg/L,1.969,-log(M),,25.0,?C,,-,,,,-
OCC=C(CCC=C(C)C)C,106-24-1,-,-,GERANIOL,A2330,-,-,-,100.0,mg/L,3.188,-log(M),,25.0,?C,,-,,,,-
C1(=C(C(=C(C(Cl)=C1Cl)Cl)Cl)Cl)Cl,118-74-1,-,-,hexachlorobenzene,A2330,-,-,-,0.0062,mg/L,7.662,-log(M),,25.0,?C,,-,,,,-
O=C(OC)C1=C(O)C=CC=C1,119-36-8,-,-,methyl salicylate,A2330,-,-,-,700.0,mg/L,2.337,-log(M),,30.0,?C,,-,,,,-
O=C(C=CC1C(=CCCC1(C)C)C)C,127-41-3,-,-,alpha-ionone,A2330,-,-,-,1000000.0,mg/L,-0.716,-log(M),,25.0,?C,,-,,,,-
O(C1=CC=C2N=CC=C(C(O)C3N4CCC(C(C=C)C4)C3)C2=C1)C,130-95-0,-,-,Quinine,A2330,-,-,-,500.0,mg/L,2.812,-log(M),,15.0,?C,,-,,,,-
C1(=CCC(C(=C)C)CC1)C,138-86-3,-,-,LIMONENE,A2330,-,-,-,7.57,mg/L,4.255,-log(M),,25.0,?C,,-,,,,-
O=C(OCC1=CC=CC=C1)C,140-11-4,-,-,Benzyl acetate,A2330,-,-,-,3100.0,mg/L,1.685,-log(M),,25.0,?C,,-,,,,-
CCCCOC(=O)C=CC1=CC=CC=C1,538-65-8,-,-,BUTYL CINNAMATE,A2330,-,-,-,5000.0,mg/L,1.611,-log(M),,,-,,-,,,,-
C1=CC=CC=C1C2=NN(P(=O)(N(C)C)N(C)C)C(N)=N2,1031-47-6,-,-,"Phosphonic diamide, P-(5-amino-3-phenyl-1H-1,2,4",A2330,-,-,-,250.0,mg/L,3.071,-log(M),,20.0,?C,,-,,,,-
O1CC(C2=C(C=C3C(C(C(C)C3(C)C)(C)C)=C2)C1)C,1222-05-5,-,-,Galaxolide,A2330,-,-,-,1.75,mg/L,5.169,-log(M),,25.0,?C,,-,,,,-
S=P(OCC)(OCC)SCN1N=NC2=CC=CC=C2C1=O,2642-71-9,-,-,Azinphos Ethyl,A2330,-,-,-,10.5,mg/L,4.517,-log(M),,20.0,?C,,-,,,,-
BrC1C(Br)CCC(Br)C(Br)CCC(Br)C(Br)CC1,3194-55-6,-,-,"1,2,5,6,9,10-HEXABROMOCYCLODODECANE",A2330,-,-,-,0.0086,mg/L,7.873,-log(M),,25.0,?C,,-,,,,-
O(C1=C(O)C=C(C=C1)Cl)C2=C(C=C(C=C2)Cl)Cl,3380-34-5,-,-,"5-CHLORO-2-(2,4-DICHLOROPHENOXY)PHENOL",A2330,-,-,-,10.0,mg/L,4.462,-log(M),,20.0,?C,,-,,,,-
O=C1N(C(=O)NN1C2=CC=CC=C2)C,14500-23-3,-,-,"1,2,4-Triazolidine-3,5-dione, 4-methyl-1-phenyl-",A2330,-,-,-,200.0,mg/L,2.98,-log(M),,,-,,-,,,,-
O=C(C1=C(C=C2C(C(CC(C)C2(C)C)(C)C)=C1)C)C,21145-77-7,-,-,Tonalid,A2330,-,-,-,1.25,mg/L,5.315,-log(M),,,-,,-,,,,-
CCOP(=S)(OCC)OC=1N=CN(N1)C2=CC=CC=C2,24017-47-8,-,-,Triazophos,A2330,-,-,-,39.0,mg/L,3.905,-log(M),,20.0,?C,,-,,,,-
O=C(OC)CC1C(C(=O)CC1)CCCCC,24851-98-7,-,-,"Cyclopentaneacetic acid, 3-oxo-2-pentyl-, methyl",A2330,-,-,-,280.0,mg/L,2.908,-log(M),,,-,,-,,,,-
C1CCCCC1[Sn](C2CCCCC2)(C3CCCCC3)N4N=CN=C4,41083-11-8,-,-,Azocyclotin,A2330,-,-,-,0.12,mg/L,6.561,-log(M),,20.0,?C,,-,,,,-
CC1=CC=CC=2SC3=NN=CN3C12,41814-78-2,-,-,tricyclazole,A2330,-,-,-,1600.0,mg/L,2.073,-log(M),,25.0,?C,,-,,,,-
CC(C)(C)C(=O)C(OC1=CC=C(Cl)C=C1)N2C=NC=N2,43121-43-3,-,-,triadimefon,A2330,-,-,-,71.5,mg/L,3.614,-log(M),,25.0,?C,,-,,,,-
C1=CC(C2=CC=CC=C2)=CC=C1OC(C(O)C(C)(C)C)N3N=CN=C3,55179-31-2,-,-,Bitertanol,A2330,-,-,-,5.0,mg/L,4.829,-log(M),,20.0,?C,,-,,,,-
CCC1CCOC(CN2C=NC=N2)(O1)C3=CC=C(Cl)C=C3Cl,60207-93-4,-,-,"1-[[2-(2,4-DICHLOROPHENYL)-4-ETHYL-1,3-DIOXOLAN-",A2330,-,-,-,80.0,mg/L,3.631,-log(M),,20.0,?C,,-,,,,-
N1=CN=CN1CC(C2=C(Cl)C=C(Cl)C=C2)CCC,66246-88-6,-,-,Penconazole,A2330,-,-,-,73.0,mg/L,3.59,-log(M),,20.0,?C,,-,,,,-
C1CCC2=NN(C3=CC(OCC#C)=C(Cl)C=C3Cl)C(=O)N2C1,68049-83-2,-,-,Azafenidin,A2330,-,-,-,16.0,mg/L,4.325,-log(M),,,-,,-,,,,-
ClC1=CC(Cl)=CC=C1CC(C(O)C(C)(C)C)N2N=CN=C2,75736-33-3,-,-,DICLOBUTRAZOL ISOMERS,A2330,-,-,-,9.0,mg/L,4.562,-log(M),,20.0,?C,,-,,,,-
N1=CN=CN1CC(O)(C2=CC=C(F)C=C2)C3=CC=CC=C3F,76674-21-0,-,-,FLUTRIAFOL (PP450),A2330,-,-,-,130.0,mg/L,3.365,-log(M),,20.0,?C,,-,,,,-
C(Cl)(C(F)(F)F)=CC1C(C)(C)C1C(=O)OCC2=C(F)C(F)=C(C)C(F)=C2F,79538-32-2,-,-,Tetrafluthrin,A2330,-,-,-,0.02,mg/L,7.321,-log(M),,20.0,?C,,-,,,,-
ClC1=C(C=CC(=C1)Cl)C(CN2N=CN=C2)(O)CCCC,79983-71-4,-,-,Hexaconazole,A2330,-,-,-,17.0,mg/L,4.267,-log(M),,20.0,?C,,-,,,,-
C1=NC=NN1C(C(O)C(C)(C)C)=CC2=CC=C(Cl)C=C2,83657-17-4,-,-,Uniconazole-P,A2330,-,-,-,8.41,mg/L,4.54,-log(M),,25.0,?C,,-,,,,-
ClC1=CC(Cl)=CC=C1C=C(C(O)C(C)(C)C)N2N=CN=C2,83657-24-3,-,-,Diniconazole,A2330,-,-,-,4.0,mg/L,4.911,-log(M),,25.0,?C,,-,,,,-
FC1=CC=CC(F)=C1C(=O)NC(=O)NC2=CC(Cl)=C(OC(F)(F)C(F)F)C(Cl)=C2,86479-06-3,-,-,Hexaflumuron,A2330,-,-,-,0.027,mg/L,7.232,-log(M),,18.0,?C,,-,,,,-