SMILES,CASRN,EXTERNALID,N,NAME,ARTICLEID,PUBMEDID,PAGE,TABLE,Solubility_log(mol/L),UNIT {Water solubility},"Water solubility {measured, converted}",UNIT {Water solubility}.1,Dataset,Temperature,UNIT {Temperature},Ionic strength,UNIT {Ionic strength},comment (chemical),source,pH,UNIT {pH}
ClC1=C(C=C(C(=C1)Cl)C2=CC(=C(C=C2)Cl)Cl)Cl,-,-,296,"2,3?,4,4?,5-PCB",A5370,19226181,-,S1,-7.39,log(mol/L),7.39,-log(M),Train,,-,,-,,,,-
ClC1=C(C=C(C(=C1)Cl)C2=CC=CC=C2)Cl,-,-,297,"2,4,5-pcb",A5370,19226181,-,S1,-6.27,log(mol/L),6.27,-log(M),Train,,-,,-,,,,-
ClC1=C(C=C(C(=C1)Cl)Cl)Cl,-,-,298,"1,2,4,5-Tetrachlorobenzene",A5370,19226181,-,S1,-5.56,log(mol/L),5.56,-log(M),Train,,-,,-,,,,-
ClC1=C(C=C(C(=C1)Cl)C(=CCl)OP(=O)(OC)OC)Cl,-,-,299,Stirofos,A5370,19226181,-,S1,-4.52,log(mol/L),4.52,-log(M),Train,,-,,-,,,,-
ClC1=C(C=C(C(=C1)Cl)OCC(=O)O)Cl,-,-,300,"2,4,5-t",A5370,19226181,-,S1,-2.96,log(mol/L),2.96,-log(M),Train,,-,,-,,,,-
ClC1=C(C=C(C(=C1)Cl)OC(C)C)N2N=C(OC2=O)C(C)(C)C,-,-,301,oxadiazon,A5370,19226181,-,S1,-5.69,log(mol/L),5.69,-log(M),Train,,-,,-,,,,-
ClC1=C(C=C(C(=C1)Cl)O)Cl,-,-,302,"2,4,5-trichlorophenol",A5370,19226181,-,S1,-2.21,log(mol/L),2.21,-log(M),Train,,-,,-,,,,-
ClC1=C(C=C(C(=C1)Cl)OP(=S)(OCC)CC)Cl,-,-,303,Trichloronate,A5370,19226181,-,S1,-5.75,log(mol/L),5.75,-log(M),Train,,-,,-,,,,-
ClC1=C(C=C(C(=C1)Cl)OP(=S)(OC)OC)Cl,-,-,304,ronnel,A5370,19226181,-,S1,-5.72,log(mol/L),5.72,-log(M),Train,,-,,-,,,,-
ClC1=C(C=C(C(=C1)C(=O)NCCN(CC)CC)OC)N,-,-,305,Metoclopramide,A5370,19226181,-,S1,-3.18,log(mol/L),3.18,-log(M),Train,,-,,-,,,,-
ClC1=C(C=C(C(=C1)NCC2=CC=CO2)C(=O)O)S(=O)(=O)N,-,-,306,Furosemide,A5370,19226181,-,S1,-3.66,log(mol/L),3.66,-log(M),Train,,-,,-,,,,-
ClC1=C(C=C(C(=C1)OC)O)Cl,-,-,307,"4,5-dichloroquiaiacol",A5370,19226181,-,S1,-2.53,log(mol/L),2.53,-log(M),Train,,-,,-,,,,-
ClC1=C(C=C(C(=C1)O)C(=O)NC2=C(C=CC=C2C)C)S(=O)(=O)N,-,-,308,Xipamide,A5370,19226181,-,S1,-3.79,log(mol/L),3.79,-log(M),Train,,-,,-,,,,-
ClC1=C(C=C(C=C1C2=C(C=C(C(=C2)Cl)Cl)Cl)Cl)Cl,-,-,309,"2,2?,3,3?,5?,6-PCB",A5370,19226181,-,S1,-8.6,log(mol/L),8.6,-log(M),Train,,-,,-,,,,-
ClC1=C(C=C(C=C1C2=C(C=C(C=C2Cl)Cl)Cl)Cl)Cl,-,-,310,"2,2?,4,4?,6,6?-PCB",A5370,19226181,-,S1,-8.71,log(mol/L),8.71,-log(M),Train,,-,,-,,,,-
ClC1=C(C=C(C=C1C)O)C,-,-,311,"phenol,4-chloro-3,5-dimethyl-",A5370,19226181,-,S1,-2.8,log(mol/L),2.8,-log(M),Train,,-,,-,,,,-
ClC1=C(C=C(C=C1Cl)Cl)Cl,-,-,312,"1,2,3,5-tetrachlorobenzene",A5370,19226181,-,S1,-4.63,log(mol/L),4.63,-log(M),Train,,-,,-,,,,-
ClC1=C(C=C(C=C1C(=O)OC)Cl)N,-,-,313,chloramben methyl ester,A5370,19226181,-,S1,-3.26,log(mol/L),3.26,-log(M),Train,,-,,-,,,,-
ClC1=C(C=C(C=C1C(=O)O)Cl)N,-,-,314,chloramben,A5370,19226181,-,S1,-2.47,log(mol/L),2.47,-log(M),Train,,-,,-,,,,-
ClC1=C(C=C(C=C1O)Cl)Cl,-,-,315,"2,3,5-Trichlorophenol",A5370,19226181,-,S1,-2.67,log(mol/L),2.67,-log(M),Train,,-,,-,,,,-
ClC1=C(C=C(C=C1)C2(NC(C3=C2C=CC=C3)=O)O)S(=O)(=O)N,-,-,316,Chlorthalidone,A5370,19226181,-,S1,-3.45,log(mol/L),3.45,-log(M),Train,,-,,-,,,,-
ClC1=C(C=C(C=C1)Cl)C2=C(C=CC(=C2)Cl)Cl,-,-,317,"2,2?,5,5?-PCB",A5370,19226181,-,S1,-7.0,log(mol/L),7.0,-log(M),Train,,-,,-,,,,-
ClC1=C(C=C(C=C1)Cl)C2=C(C=CC=C2)Cl,-,-,318,"2,2?,5-PCB",A5370,19226181,-,S1,-6.02,log(mol/L),6.02,-log(M),Train,,-,,-,,,,-
ClC1=C(C=C(C=C1)Cl)C2=CC(=CC=C2)Cl,-,-,319,"2,3?,5-PCB",A5370,19226181,-,S1,-6.01,log(mol/L),6.01,-log(M),Train,,-,,-,,,,-
ClC1=C(C=C(C=C1)Cl)C2=CC=C(C=C2)Cl,-,-,320,"2,4?,5-PCB",A5370,19226181,-,S1,-6.25,log(mol/L),6.25,-log(M),Train,,-,,-,,,,-
ClC1=C(C=C(C=C1)C(=O)NN2C(CC3=C2C=CC=C3)C)S(=O)(=O)N,-,-,321,Indapamide,A5370,19226181,-,S1,-3.59,log(mol/L),3.59,-log(M),Train,,-,,-,,,,-
ClC1=C(C=C(C=C1)O)C,-,-,322,3-methyl-4-chlorophenol,A5370,19226181,-,S1,-1.57,log(mol/L),1.57,-log(M),Train,,-,,-,,,,-
ClC1=C(C=CC(=C1C2=C(C(=CC=C2Cl)Cl)Cl)Cl)Cl,-,-,323,"1,2,4-trichloro-3-(2,3,6-trichlorophenyl)benzene",A5370,19226181,-,S1,-8.65,log(mol/L),8.65,-log(M),Train,,-,,-,,,,-
ClC1=C(C=CC(=C1C2=C(C=C(C(=C2)Cl)Cl)Cl)Cl)Cl,-,-,324,"2,2?,3,3?,6,6?-PCB",A5370,19226181,-,S1,-8.65,log(mol/L),8.65,-log(M),Train,,-,,-,,,,-
ClC1=C(C=CC(=C1C2=C(C=C(C=C2)Cl)Cl)Cl)Cl,-,-,325,"2,2',3,4,6-PCB",A5370,19226181,-,S1,-7.43,log(mol/L),7.43,-log(M),Train,,-,,-,,,,-
ClC1=C(C=CC(=C1C2=CC=CC=C2)Cl)Cl,-,-,326,"2,3,6-pcb",A5370,19226181,-,S1,-6.29,log(mol/L),6.29,-log(M),Train,,-,,-,,,,-
ClC1=C(C=CC(=C1CC(=O)O)Cl)Cl,-,-,327,chlorfenac,A5370,19226181,-,S1,-3.08,log(mol/L),3.08,-log(M),Train,,-,,-,,,,-
ClC1=C(C=CC(=C1O)Cl)Cl,-,-,328,"2,3,6-Trichlorophenol",A5370,19226181,-,S1,-2.64,log(mol/L),2.64,-log(M),Train,,-,,-,,,,-
ClC1=C(C=CC(=C1)C2=C(C=C(C=C2)Cl)Cl)Cl,-,-,329,"2,3?,4,4?-PCB",A5370,19226181,-,S1,-7.8,log(mol/L),7.8,-log(M),Train,,-,,-,,,,-
ClC1=C(C=CC(=C1)C2=C(C=CC(=C2)Cl)Cl)Cl,-,-,330,"2,3?,4?,5-PCB",A5370,19226181,-,S1,-7.25,log(mol/L),7.25,-log(M),Train,,-,,-,,,,-
ClC1=C(C=CC(=C1)C2=C(C=CC=C2)Cl)Cl,-,-,331,"2?,3,4-PCB",A5370,19226181,-,S1,-6.29,log(mol/L),6.29,-log(M),Train,,-,,-,,,,-
ClC1=C(C=CC(=C1)C2=CC(=C(C=C2)N)Cl)N,-,-,332,"3,3?-dichlorobenzidine",A5370,19226181,-,S1,-4.92,log(mol/L),4.92,-log(M),Train,,-,,-,,,,-
ClC1=C(C=CC(=C1)C2=CC=CC=C2)Cl,-,-,333,"3,4-pcb",A5370,19226181,-,S1,-6.39,log(mol/L),6.39,-log(M),Train,,-,,-,,,,-
ClC1=C(C=CC(=C1)Cl)C2=C(C=C(C=C2)Cl)Cl,-,-,334,"2,2?,4,4?-PCB",A5370,19226181,-,S1,-6.51,log(mol/L),6.51,-log(M),Train,,-,,-,,,,-
ClC1=C(C=CC(=C1)Cl)C2=C(C=CC(=C2)Cl)Cl,-,-,335,"2,2?,4,5?-PCB",A5370,19226181,-,S1,-6.57,log(mol/L),6.57,-log(M),Train,,-,,-,,,,-