SMILES,CASRN,EXTERNALID,N,NAME,ARTICLEID,PUBMEDID,PAGE,TABLE,Solubility_log(mol/L),UNIT {Water solubility},"Water solubility {measured, converted}",UNIT {Water solubility}.1,Dataset,Temperature,UNIT {Temperature},Ionic strength,UNIT {Ionic strength},comment (chemical),source,pH,UNIT {pH}
ClC1=CC=C(Cl)C(C2=CC=CC(Cl)=C2Cl)=C1,41464-39-5,-,834,"2,2?,3,5?-pcb",A64,11749573,-,-,-6.47,log(mol/L),6.47,-log(M),Train,,-,,-,,,,-
ClC(Cl)C(C1=CC=C(Cl)C=C1)C2=CC=CC=C2Cl,53-19-0,-,835,"o,p?-ddd",A64,11749573,-,-,-6.51,log(mol/L),6.51,-log(M),Train,,-,,-,,,,-
ClC1=CC=C(C2=CC=C(Cl)C=C2)C=C1,2050-68-2,-,836,"4,4?-pcb",A64,11749573,-,-,-6.56,log(mol/L),6.56,-log(M),Train,,-,,-,,,,-
ClC1=CC=C(Cl)C=C1C2=C(Cl)C=C(Cl)C=C2,41464-40-8,-,837,"2,2?,4,5?-pcb",A64,11749573,-,-,-6.57,log(mol/L),6.57,-log(M),Train,,-,,-,,,,-
CC=1C2=C(C=CC=C2)C(=C3C1C=CC=C3)C,781-43-1,-,838,"9,10-dimethylanthracene",A64,11749573,-,-,-6.57,log(mol/L),6.57,-log(M),Train,,-,,-,,,,-
S=P(OC)(OC)OC1=C(Cl)C=C(I)C(Cl)=C1,18181-70-9,-,839,iodofenphos,A64,11749573,-,-,-6.62,log(mol/L),6.62,-log(M),Train,,-,,-,,,,-
C=12C=3C=CC=CC3C=CC1C4=CC=CC=C4C2,238-84-6,-,840,benzo(a)fluorene,A64,11749573,-,-,-6.68,log(mol/L),6.68,-log(M),Train,,-,,-,,,,-
C=12C=CC=CC1C=3C=CC=CC3C4=C2C=CC=C4,217-59-4,-,841,triphenylene,A64,11749573,-,-,-6.74,log(mol/L),6.74,-log(M),Train,,-,,-,,,,-
ClC1=CC=C(C=C1C2=C(Cl)C=CC=C2Cl)Cl,41464-41-9,-,842,"2,2?,5,6?-pcb",A64,11749573,-,-,-6.8,log(mol/L),6.8,-log(M),Train,,-,,-,,,,-
CCC1=CC=2C=C3C=CC=CC3=CC2C=C1,52251-71-5,-,843,2-ethylanthracene,A64,11749573,-,-,-6.89,log(mol/L),6.89,-log(M),Train,,-,,-,,,,-
ClC(Cl)=C(C1=CC=C(Cl)C=C1)C2=CC=C(Cl)C=C2,72-55-9,-,844,"p,p?-dde",A64,11749573,-,-,-6.9,log(mol/L),6.9,-log(M),Train,,-,,-,,,,-
CC1=CC=2C=C3C=CC=CC3=CC2C=C1,613-12-7,-,845,2-methylanthracene,A64,11749573,-,-,-6.96,log(mol/L),6.96,-log(M),Train,,-,,-,,,,-
CC=1C=2C=3C=CC=CC3C=CC2C(C)=C4C1C=CC=C4,57-97-6,-,846,"7,12-dimethylbenz(a)anthracene",A64,11749573,-,-,-7.02,log(mol/L),7.02,-log(M),Train,,-,,-,,,,-
C1(C2=CC=C(C3=CC=CC=C3)C=C2)=CC=CC=C1,92-94-4,-,847,p-terphenyl,A64,11749573,-,-,-7.11,log(mol/L),7.11,-log(M),Train,,-,,-,,,,-
ClC(Cl)C(C1=CC=C(Cl)C=C1)C2=CC=C(Cl)C=C2,72-54-8,-,848,"p,p?-ddd",A64,11749573,-,-,-7.2,log(mol/L),7.2,-log(M),Train,,-,,-,,,,-
ClC1=C(Cl)C(Cl)=C(C=C1C2=C(Cl)C=CC=C2)Cl,55312-69-1,-,849,"2,2?,3,4,5-pcb",A64,11749573,-,-,-7.21,log(mol/L),7.21,-log(M),Train,,-,,-,,,,-
ClC1=CC=C(Cl)C=C1C2=CC=C(Cl)C(Cl)=C2,32598-11-1,-,850,"2,3?,4?,5-pcb",A64,11749573,-,-,-7.25,log(mol/L),7.25,-log(M),Train,,-,,-,,,,-
ClC1=C(Cl)C=CC=C1C2=C(Cl)C(Cl)=CC=C2,38444-93-8,-,851,"2,2?,3,3?-pcb",A64,11749573,-,-,-7.28,log(mol/L),7.28,-log(M),Train,,-,,-,,,,-
CC1C2(OCC(C)CC2)OC3CC4C5CC=C6CC(O)CCC6(C)C5CCC4(C)C31,512-04-9,-,852,diosgenin,A64,11749573,-,-,-7.32,log(mol/L),7.32,-log(M),Train,,-,,-,,,,-
ClC1=C(C(Cl)=CC(Cl)=C1)C2=C(Cl)C=CC=C2Cl,56558-16-8,-,853,"2,2,4,6,6?-pcb",A64,11749573,-,-,-7.32,log(mol/L),7.32,-log(M),Train,,-,,-,,,,-
ClC1=CC(Cl)=C(Cl)C=C1C2=CC=C(Cl)C(Cl)=C2,31508-00-6,-,854,"2,3?,4,4?,5-pcb",A64,11749573,-,-,-7.39,log(mol/L),7.39,-log(M),Train,,-,,-,,,,-
ClC1=CC=CC(Cl)=C1C2=C(Cl)C=CC=C2Cl,15968-05-5,-,855,"2,2?,6,6?-pcb",A64,11749573,-,-,-7.39,log(mol/L),7.39,-log(M),Train,,-,,-,,,,-
C=12C=CC3=C(C1NC=4C=5C=CC=CC5C=CC24)C=CC=C3,239-64-5,-,856,"13h-dibenzo(a,i)carbazole",A64,11749573,-,-,-7.42,log(mol/L),7.42,-log(M),Train,,-,,-,,,,-
ClC1=C(C2=CC(Cl)=CC=C2Cl)C(Cl)=C(Cl)C=C1Cl,52663-63-5,-,857,"2,2?,3,5,5?,6-pcb",A64,11749573,-,-,-7.42,log(mol/L),7.42,-log(M),Train,,-,,-,,,,-
ClC1=C(C(Cl)=CC(Cl)=C1Cl)C2=C(Cl)C=CC=C2,55215-17-3,-,858,"2,2?,3,4,6-pcb",A64,11749573,-,-,-7.43,log(mol/L),7.43,-log(M),Train,,-,,-,,,,-
ClC1=C(C2=CC=C(Cl)C(Cl)=C2)C(Cl)=C(Cl)C(Cl)=C1,74472-42-7,-,859,"2,3,3?,4,4?6-pcb",A64,11749573,-,-,-7.66,log(mol/L),7.66,-log(M),Train,,-,,-,,,,-
ClC1=CC=C(Cl)C(C2=CC(Cl)=C(Cl)C(Cl)=C2Cl)=C1,52712-04-6,-,860,"2,2?,3,4,5,5?-pcb",A64,11749573,-,-,-7.68,log(mol/L),7.68,-log(M),Train,,-,,-,,,,-
ClC1=CC=C(C2=CC=C(C(Cl)=C2)Cl)C(Cl)=C1,32598-10-0,-,861,"2,3?,4,4?-pcb",A64,11749573,-,-,-7.8,log(mol/L),7.8,-log(M),Train,,-,,-,,,,-
ClC1=C(Cl)C(Cl)=C(C=C1C2=CC=C(Cl)C(Cl)=C2)Cl,38380-08-4,-,862,"2,3,3?,4,4?,5-pcb",A64,11749573,-,-,-7.82,log(mol/L),7.82,-log(M),Train,,-,,-,,,,-
ClC1=C(Cl)C(Cl)=C(Cl)C(Cl)=C1C2=CC=CC=C2,18259-05-7,-,863,"2,3,4,5,6-pcb",A64,11749573,-,-,-7.92,log(mol/L),7.92,-log(M),Train,,-,,-,,,,-
ClC1=C(C2=CC(Cl)=C(Cl)C=C2Cl)C(Cl)=C(Cl)C(Cl)=C1,52663-69-1,-,864,"2,2?,3,4,4?,5?,6-pcb",A64,11749573,-,-,-7.92,log(mol/L),7.92,-log(M),Train,,-,,-,,,,-
CC1=CC=C2C=C3C(C=CC4=C3C=CC=C4)=C5C2=C1CC5,56-49-5,-,865,3-methylcholanthrene,A64,11749573,-,-,-7.92,log(mol/L),7.92,-log(M),Train,,-,,-,,,,-
C=12C=CC3=C(C=CC=C3)C1C=4C5=C(C=CC=C52)C=CC4,205-82-3,-,866,benzo(j)fluoranthene,A64,11749573,-,-,-8.0,log(mol/L),8.0,-log(M),Train,,-,,-,,,,-
ClC1=CC=C(C2=CC=C(C(Cl)=C2Cl)Cl)C(Cl)=C1Cl,38380-07-3,-,867,"2,2?,3,3?,4,4?-pcb",A64,11749573,-,-,-8.01,log(mol/L),8.01,-log(M),Train,,-,,-,,,,-
C=12C3=C4C=CC=C3C=CC1C=C5C(C=CC=C5)=C2C=C4,50-32-8,-,868,benzo(a)pyrene,A64,11749573,-,-,-8.19,log(mol/L),8.19,-log(M),Train,,-,,-,,,,-
C=12C=3C=4C=CC=CC4C1C=CC=C2C=5C=CC=CC5C3,205-99-2,-,869,benzo(b)fluoranthene,A64,11749573,-,-,-8.23,log(mol/L),8.23,-log(M),Train,,-,,-,,,,-
FC(F)(F)C1=CC=CC(C(C2=CC=CC=C2)(N3C=NC=N3)C4=CC=CC=C4)=C1,31251-03-3,-,870,fluotrimazole,A64,11749573,-,-,-8.4,log(mol/L),8.4,-log(M),Train,,-,,-,,,,-
ClC1=CC(Cl)=C(Cl)C=C1C2=CC(Cl)=C(Cl)C=C2Cl,35065-27-1,-,871,"2,2?,4,4?5,5?-pcb",A64,11749573,-,-,-8.56,log(mol/L),8.56,-log(M),Train,,-,,-,,,,-
ClC1=C(Cl)C=C(C(=C1C2=C(Cl)C(Cl)=CC=C2)Cl)Cl,52704-70-8,-,872,"2,2?,3,3?,5,6-pcb",A64,11749573,-,-,-8.6,log(mol/L),8.6,-log(M),Train,,-,,-,,,,-
ClC1=CC(Cl)=C(C2=C(C=C(C=C2Cl)Cl)Cl)C(Cl)=C1,33979-03-2,-,873,"2,2?,4,4?,6,6?-pcb",A64,11749573,-,-,-8.71,log(mol/L),8.71,-log(M),Train,,-,,-,,,,-
C1=2C=CC=C3C=CC=C(C=4C5=C(C=CC=C15)C=CC4)C23,198-55-0,-,874,perylene,A64,11749573,-,-,-8.8,log(mol/L),8.8,-log(M),Train,,-,,-,,,,-
ClC1=C(C2=CC(Cl)=CC=C2Cl)C(Cl)=C(Cl)C(Cl)=C1Cl,52712-05-7,-,875,"2,2?,3,4,5,5?,6-pcb",A64,11749573,-,-,-8.94,log(mol/L),8.94,-log(M),Train,,-,,-,,,,-
ClC1=C(Cl)C=C(Cl)C(Cl)=C1C2=C(Cl)C(Cl)=CC(Cl)=C2Cl,2136-99-4,-,876,"2,2?,3,3?,5,5?,6,6?-pcb",A64,11749573,-,-,-9.15,log(mol/L),9.15,-log(M),Train,,-,,-,,,,-
ClC1=C(Cl)C(Cl)=C(Cl)C(C2=CC(Cl)=C(Cl)C(Cl)=C2Cl)=C1,35694-08-7,-,877,"2,2?,3,3?,4,4?,5,5?-pcb",A64,11749573,-,-,-9.16,log(mol/L),9.16,-log(M),Train,,-,,-,,,,-
ClC1=C(C(Cl)=C(C2=C(C(Cl)=C(C(Cl)=C2Cl)Cl)Cl)C(Cl)=C1Cl)Cl,2051-24-3,-,878,"2,2?,3,3?,4,4?,5,5?,6,6?-pcb",A64,11749573,-,-,-11.62,log(mol/L),11.62,-log(M),Train,,-,,-,,,,-
CNC(N)=O,598-50-5,-,879,n-methylurea,A64,11749573,-,-,1.13,log(mol/L),-1.13,-log(M),Test 1,,-,,-,,,,-
O=C1CCCO1,96-48-0,-,880,gamma-butyrolactone,A64,11749573,-,-,1.07,log(mol/L),-1.07,-log(M),Test 1,,-,,-,,,,-
O=C1CCCN1,616-45-5,-,881,pyrrolidone,A64,11749573,-,-,1.07,log(mol/L),-1.07,-log(M),Test 1,,-,,-,,,,-
C1COCCN1,110-91-8,-,882,morpholine,A64,11749573,-,-,1.06,log(mol/L),-1.06,-log(M),Test 1,,-,,-,,,,-
OC1COCC1,453-20-3,-,883,3-hydroxytetrahydrofuran,A64,11749573,-,-,1.05,log(mol/L),-1.05,-log(M),Test 1,,-,,-,,,,-
CN1C(CCC1)=O,872-50-4,-,884,n-methylpyrrolidone,A64,11749573,-,-,1.0,log(mol/L),-1.0,-log(M),Test 1,,-,,-,,,,-
OCC1=CC=CN=C1,100-55-0,-,885,3-pyridinemethanol,A64,11749573,-,-,0.96,log(mol/L),-0.96,-log(M),Test 1,,-,,-,,,,-
O=C(N)N,57-13-6,-,886,Urea,A64,11749573,-,-,0.96,log(mol/L),-0.96,-log(M),Test 1,,-,,-,,,,-
C=CC(N)=O,79-06-1,-,887,acrylamide,A64,11749573,-,-,0.96,log(mol/L),-0.96,-log(M),Test 1,,-,,-,,,,-
O=C(N(C)C)N(C)C,632-22-4,-,888,tetramethylurea,A64,11749573,-,-,0.94,log(mol/L),-0.94,-log(M),Test 1,,-,,-,,,,-
CN(C)C,75-50-3,-,889,trimethylamine,A64,11749573,-,-,0.84,log(mol/L),-0.84,-log(M),Test 1,,-,,-,,,,-
CN1C(C2=CC=CN=C2)CCC1,54-11-5,-,890,Nicotine,A64,11749573,-,-,0.79,log(mol/L),-0.79,-log(M),Test 1,,-,,-,,,,-
OC1OC(CO)C(O)C(O)C1O,50-99-7,-,891,glucose,A64,11749573,-,-,0.74,log(mol/L),-0.74,-log(M),Test 1,,-,,-,,,,-
OCC(O)C(CO)O,149-32-6,-,892,erythritol,A64,11749573,-,-,0.7,log(mol/L),-0.7,-log(M),Test 1,,-,,-,,,,-
C(C)(=O)OC,79-20-9,-,893,Methyl acetate,A64,11749573,-,-,0.52,log(mol/L),-0.52,-log(M),Test 1,,-,,-,,,,-
OC(C(O)=O)(CC(O)=O)CC(O)=O,77-92-9,-,894,citric acid,A64,11749573,-,-,0.51,log(mol/L),-0.51,-log(M),Test 1,,-,,-,,,,-
O=P(OCC)(OCC)OCC,78-40-0,-,895,triethyl phosphate,A64,11749573,-,-,0.43,log(mol/L),-0.43,-log(M),Test 1,,-,,-,,,,-
CC(CC)O,78-92-2,-,896,2-butanol,A64,11749573,-,-,0.43,log(mol/L),-0.43,-log(M),Test 1,,-,,-,,,,-
O=C(O)C(O)=O,144-62-7,-,897,oxalic acid,A64,11749573,-,-,0.38,log(mol/L),-0.38,-log(M),Test 1,,-,,-,,,,-
CC1=CC(C)=CN=C1,591-22-0,-,898,"3,5-dimethylpyridine",A64,11749573,-,-,0.38,log(mol/L),-0.38,-log(M),Test 1,,-,,-,,,,-
CC1=CC=NC=C1C,583-58-4,-,899,"3,4-dimethylpyridine",A64,11749573,-,-,0.36,log(mol/L),-0.36,-log(M),Test 1,,-,,-,,,,-
NC(N)=S,62-56-6,-,900,thiourea,A64,11749573,-,-,0.32,log(mol/L),-0.32,-log(M),Test 1,,-,,-,,,,-
FC(F)(F)C(O)C,374-01-6,-,901,"1,1,1-trifluoro-2-propanol",A64,11749573,-,-,0.3,log(mol/L),-0.3,-log(M),Test 1,,-,,-,,,,-
CC1=NC=2N=CN=CC2N=C1,936-40-3,-,902,7-methylpteridine,A64,11749573,-,-,0.06,log(mol/L),-0.06,-log(M),Test 1,,-,,-,,,,-
CC(C(O)=O)=C,79-41-4,-,903,methacrylic acid,A64,11749573,-,-,0.01,log(mol/L),-0.01,-log(M),Test 1,,-,,-,,,,-
CCCCO,71-36-3,-,904,1-Butanol,A64,11749573,-,-,0.0,log(mol/L),0.0,-log(M),Test 1,,-,,-,,,,-
NC(CCl)=O,79-07-2,-,905,chloroacetamide,A64,11749573,-,-,-0.02,log(mol/L),0.02,-log(M),Test 1,,-,,-,,,,-
C(C)(=O)OCC,141-78-6,-,906,Ethyl acetate,A64,11749573,-,-,-0.04,log(mol/L),0.04,-log(M),Test 1,,-,,-,,,,-
COC(C)C,598-53-8,-,907,methyl isopropyl ether,A64,11749573,-,-,-0.06,log(mol/L),0.06,-log(M),Test 1,,-,,-,,,,-
OC(CCl)CCl,96-23-1,-,908,"1,3-dichloro-2-propanol",A64,11749573,-,-,-0.11,log(mol/L),0.11,-log(M),Test 1,,-,,-,,,,-
O=C(OC)CC,554-12-1,-,909,methyl propionate,A64,11749573,-,-,-0.14,log(mol/L),0.14,-log(M),Test 1,,-,,-,,,,-
OC1=CC=C(O)C=C1,123-31-9,-,910,"1,4-benzenediol",A64,11749573,-,-,-0.17,log(mol/L),0.17,-log(M),Test 1,,-,,-,,,,-
OC(C(Cl)(Cl)Cl)P(OC)(OC)=O,52-68-6,-,911,trichlorfon,A64,11749573,-,-,-0.22,log(mol/L),0.22,-log(M),Test 1,,-,,-,,,,-
CC(C)(C)OC,1634-04-4,-,912,Methyl t-butyl ether,A64,11749573,-,-,-0.24,log(mol/L),0.24,-log(M),Test 1,,-,,-,,,,-
NC(OCC1=CC=CC=C1)=O,621-84-1,-,913,o-benzyl carbamate,A64,11749573,-,-,-0.35,log(mol/L),0.35,-log(M),Test 1,,-,,-,,,,-
NC1=NC=CS1,96-50-4,-,914,2-aminothiazole,A64,11749573,-,-,-0.36,log(mol/L),0.36,-log(M),Test 1,,-,,-,,,,-
O=C1NC(CN1)=O,461-72-3,-,915,hydantoin,A64,11749573,-,-,-0.4,log(mol/L),0.4,-log(M),Test 1,,-,,-,,,,-
O=C1NC(=O)NC1=O,120-89-8,-,916,parabanic acid,A64,11749573,-,-,-0.4,log(mol/L),0.4,-log(M),Test 1,,-,,-,,,,-
CC(C)(C)CO,75-84-3,-,917,"2,2-dimethyl-1-propanol",A64,11749573,-,-,-0.4,log(mol/L),0.4,-log(M),Test 1,,-,,-,,,,-
OC(C1=CC=C(N)C=C1)=O,150-13-0,-,918,4-Aminobenzoic acid,A64,11749573,-,-,-0.4,log(mol/L),0.4,-log(M),Test 1,,-,,-,,,,-
NC1=CC=CC=C1,62-53-3,-,919,aniline,A64,11749573,-,-,-0.41,log(mol/L),0.41,-log(M),Test 1,,-,,-,,,,-
CC(C)(O)C(C)C,594-60-5,-,920,"2,3-dimethyl-2-butanol",A64,11749573,-,-,-0.41,log(mol/L),0.41,-log(M),Test 1,,-,,-,,,,-
CCCCOCCO,111-76-2,-,921,2-butoxyethanol,A64,11749573,-,-,-0.42,log(mol/L),0.42,-log(M),Test 1,,-,,-,,,,-
CC(OCC)OCC,105-57-7,-,922,"1,1-diethoxyethane",A64,11749573,-,-,-0.43,log(mol/L),0.43,-log(M),Test 1,,-,,-,,,,-
OC(CCI)=O,141-76-4,-,923,beta-iodopropionic acid,A64,11749573,-,-,-0.43,log(mol/L),0.43,-log(M),Test 1,,-,,-,,,,-
CCCNCCC,142-84-7,-,924,dipropylamine,A64,11749573,-,-,-0.46,log(mol/L),0.46,-log(M),Test 1,,-,,-,,,,-
CC(CO)CC,137-32-6,-,925,2-methyl-1-butanol,A64,11749573,-,-,-0.47,log(mol/L),0.47,-log(M),Test 1,,-,,-,,,,-
O=C(C1=CC=CO1)O,88-14-2,-,926,2-furoic acid,A64,11749573,-,-,-0.48,log(mol/L),0.48,-log(M),Test 1,,-,,-,,,,-
CC(C)(O)CCC,590-36-3,-,927,2-methyl-2-pentanol,A64,11749573,-,-,-0.49,log(mol/L),0.49,-log(M),Test 1,,-,,-,,,,-
CC(C)CCO,123-51-3,-,928,isopentanol,A64,11749573,-,-,-0.52,log(mol/L),0.52,-log(M),Test 1,,-,,-,,,,-
C(C)(=O)OC(C)C,108-21-4,-,929,Isopropyl acetate,A64,11749573,-,-,-0.55,log(mol/L),0.55,-log(M),Test 1,,-,,-,,,,-
CCOC(C)C,625-54-7,-,930,ethyl isopropyl ether,A64,11749573,-,-,-0.55,log(mol/L),0.55,-log(M),Test 1,,-,,-,,,,-
CCS,75-08-1,-,931,ethanethiol,A64,11749573,-,-,-0.6,log(mol/L),0.6,-log(M),Test 1,,-,,-,,,,-
CCCCCO,71-41-0,-,932,1-Pentanol,A64,11749573,-,-,-0.6,log(mol/L),0.6,-log(M),Test 1,,-,,-,,,,-
CC(C)N(=O)=O,79-46-9,-,933,2-nitropropane,A64,11749573,-,-,-0.62,log(mol/L),0.62,-log(M),Test 1,,-,,-,,,,-
CN1N(C2=CC=CC=C2)C(C(N)=C1C)=O,83-07-8,-,934,Ampyrone,A64,11749573,-,-,-0.62,log(mol/L),0.62,-log(M),Test 1,,-,,-,,,,-
OC1=CC=CC=C1C,95-48-7,-,935,o-cresol,A64,11749573,-,-,-0.62,log(mol/L),0.62,-log(M),Test 1,,-,,-,,,,-
S=C1NCCN1,96-45-7,-,936,ethylenethiourea,A64,11749573,-,-,-0.71,log(mol/L),0.71,-log(M),Test 1,,-,,-,,,,-
OCCC1=CC=CC=C1,60-12-8,-,937,2-phenylethanol,A64,11749573,-,-,-0.74,log(mol/L),0.74,-log(M),Test 1,,-,,-,,,,-
O=N(=O)CCC,108-03-2,-,938,1-nitropropane,A64,11749573,-,-,-0.8,log(mol/L),0.8,-log(M),Test 1,,-,,-,,,,-
CC(C)CC(O)C,108-11-2,-,939,4-methyl-2-pentanol,A64,11749573,-,-,-0.8,log(mol/L),0.8,-log(M),Test 1,,-,,-,,,,-
CC(CCCC)=O,591-78-6,-,940,2-Hexanone,A64,11749573,-,-,-0.8,log(mol/L),0.8,-log(M),Test 1,,-,,-,,,,-
O=C(O)C(CC)CC,88-09-5,-,941,2-ethylbutyric acid,A64,11749573,-,-,-0.81,log(mol/L),0.81,-log(M),Test 1,,-,,-,,,,-
OC(CCCCC(O)=O)=O,124-04-9,-,942,adipic acid,A64,11749573,-,-,-0.82,log(mol/L),0.82,-log(M),Test 1,,-,,-,,,,-
O=C1CNC(CN1)=O,106-57-0,-,943,"2,5-piperazinedione",A64,11749573,-,-,-0.83,log(mol/L),0.83,-log(M),Test 1,,-,,-,,,,-
CN(C(OC1=CC(CC(C)(C1)C)=O)=O)C,122-15-6,-,944,dimetan,A64,11749573,-,-,-0.85,log(mol/L),0.85,-log(M),Test 1,,-,,-,,,,-
CC1=C(N)C=CC=C1,95-53-4,-,945,2-methylaniline,A64,11749573,-,-,-0.85,log(mol/L),0.85,-log(M),Test 1,,-,,-,,,,-
CC(C)C(O)(C)CC,595-41-5,-,946,"2,3-dimethyl-3-pentanol",A64,11749573,-,-,-0.85,log(mol/L),0.85,-log(M),Test 1,,-,,-,,,,-
CC(O)(C)C(C)CC,4911-70-0,-,947,"2,3-dimethyl-2-pentanol",A64,11749573,-,-,-0.89,log(mol/L),0.89,-log(M),Test 1,,-,,-,,,,-
CC(O)CCCC,626-93-7,-,948,2-hexanol,A64,11749573,-,-,-0.89,log(mol/L),0.89,-log(M),Test 1,,-,,-,,,,-
NC(C1=CN=CC=N1)=O,98-96-4,-,949,2-pyrazinecarboxamide,A64,11749573,-,-,-0.91,log(mol/L),0.91,-log(M),Test 1,,-,,-,,,,-
OC(C(CO)C1=CC=CC=C1)=O,552-63-6,-,950,dl-tropic acid,A64,11749573,-,-,-0.93,log(mol/L),0.93,-log(M),Test 1,,-,,-,,,,-
CC1CCCCC1=O,583-60-8,-,951,2-methylcyclohexanone,A64,11749573,-,-,-0.94,log(mol/L),0.94,-log(M),Test 1,,-,,-,,,,-
NC(NCC1=CC=CC=C1)=O,538-32-9,-,952,benzylurea,A64,11749573,-,-,-0.95,log(mol/L),0.95,-log(M),Test 1,,-,,-,,,,-
CN(C1=CC=CC=C1)C(C)=O,579-10-2,-,953,n-methylacetanilide,A64,11749573,-,-,-0.95,log(mol/L),0.95,-log(M),Test 1,,-,,-,,,,-
NC(N(N=O)CC)=O,759-73-9,-,954,1-nitroso-1-ethylurea,A64,11749573,-,-,-0.96,log(mol/L),0.96,-log(M),Test 1,,-,,-,,,,-
N#CC1=CC=CC=C1,100-47-0,-,955,benzonitrile,A64,11749573,-,-,-1.0,log(mol/L),1.0,-log(M),Test 1,,-,,-,,,,-
OC1=CC=CC(N(=O)=O)=C1,554-84-7,-,956,3-nitrophenol,A64,11749573,-,-,-1.01,log(mol/L),1.01,-log(M),Test 1,,-,,-,,,,-
CCC(C)(C)CO,1185-33-7,-,957,"2,2-dimethyl-1-butanol",A64,11749573,-,-,-1.04,log(mol/L),1.04,-log(M),Test 1,,-,,-,,,,-
ClCCCl,107-06-2,-,958,"1,2-dichloroethane",A64,11749573,-,-,-1.06,log(mol/L),1.06,-log(M),Test 1,,-,,-,,,,-
CC1(CC(C)=CC(=O)C1)C,78-59-1,-,959,isophorone,A64,11749573,-,-,-1.06,log(mol/L),1.06,-log(M),Test 1,,-,,-,,,,-
OC1=CC=CC=C1Cl,95-57-8,-,960,2-chlorophenol,A64,11749573,-,-,-1.06,log(mol/L),1.06,-log(M),Test 1,,-,,-,,,,-
CCCCCC(O)=O,142-62-1,-,961,caproic acid,A64,11749573,-,-,-1.06,log(mol/L),1.06,-log(M),Test 1,,-,,-,,,,-
C(CCC)CCN,111-26-2,-,962,hexylamine,A64,11749573,-,-,-1.1,log(mol/L),1.1,-log(M),Test 1,,-,,-,,,,-
CC(CO)CCC,105-30-6,-,963,2-methyl-1-pentanol,A64,11749573,-,-,-1.11,log(mol/L),1.11,-log(M),Test 1,,-,,-,,,,-
ClCCOCCCl,111-44-4,-,964,bis-(2-chloroethyl) ether,A64,11749573,-,-,-1.12,log(mol/L),1.12,-log(M),Test 1,,-,,-,,,,-
OC(CC)C(C)(C)C,3970-62-5,-,965,"2,2-dimethyl-3-pentanol",A64,11749573,-,-,-1.15,log(mol/L),1.15,-log(M),Test 1,,-,,-,,,,-
O=C(C1=CC(O)=C(O)C(O)=C1)O,149-91-7,-,966,gallic acid,A64,11749573,-,-,-1.16,log(mol/L),1.16,-log(M),Test 1,,-,,-,,,,-
C(Br)Br,74-95-3,-,967,dibromomethane,A64,11749573,-,-,-1.17,log(mol/L),1.17,-log(M),Test 1,,-,,-,,,,-
CC1=CC(O)=C2C=CC=CC2=N1,607-67-0,-,968,4-hydroxy-2-methylquinoline,A64,11749573,-,-,-1.2,log(mol/L),1.2,-log(M),Test 1,,-,,-,,,,-
NC1=CC=C(C)C=C1,106-49-0,-,969,4-methylaniline,A64,11749573,-,-,-1.21,log(mol/L),1.21,-log(M),Test 1,,-,,-,,,,-
OC1=NC=NC2=C1N=CN2C3C(O)C(O)C(CO)O3,58-63-9,-,970,inosine,A64,11749573,-,-,-1.23,log(mol/L),1.23,-log(M),Test 1,,-,,-,,,,-
O=C(C1=CC(O)=C(C(=C1)O)O)OC,99-24-1,-,971,methyl gallate,A64,11749573,-,-,-1.24,log(mol/L),1.24,-log(M),Test 1,,-,,-,,,,-
OCCN1C(N(=O)=O)=CN=C1C,443-48-1,-,972,Metronidazole,A64,11749573,-,-,-1.26,log(mol/L),1.26,-log(M),Test 1,,-,,-,,,,-
O=C1NC(C)=CC(N1)=O,626-48-2,-,973,6-methyluracil,A64,11749573,-,-,-1.26,log(mol/L),1.26,-log(M),Test 1,,-,,-,,,,-
CC1=CC(N)=NC(C)=N1,461-98-3,-,974,"2,6-dimethyl-4-pyrimidinamine",A64,11749573,-,-,-1.28,log(mol/L),1.28,-log(M),Test 1,,-,,-,,,,-
CNC1=CC=CC=C1,100-61-8,-,975,N-Methylaniline,A64,11749573,-,-,-1.28,log(mol/L),1.28,-log(M),Test 1,,-,,-,,,,-
CCCC(CCC)=O,123-19-3,-,976,4-heptanone,A64,11749573,-,-,-1.3,log(mol/L),1.3,-log(M),Test 1,,-,,-,,,,-
ClC=CCl,156-59-2,-,977,"1,2-dichloroethylene",A64,11749573,-,-,-1.3,log(mol/L),1.3,-log(M),Test 1,,-,,-,,,,-
CC1=C(O)C(C)=CC=C1,576-26-1,-,978,"2,6-xylenol",A64,11749573,-,-,-1.31,log(mol/L),1.31,-log(M),Test 1,,-,,-,,,,-
BrC=CBr,590-12-5,-,979,"1,2-dibromoethylene",A64,11749573,-,-,-1.32,log(mol/L),1.32,-log(M),Test 1,,-,,-,,,,-
CCCOC(C)C,627-08-7,-,980,propyl isopropyl ether,A64,11749573,-,-,-1.34,log(mol/L),1.34,-log(M),Test 1,,-,,-,,,,-
CNC(NCCSCC1=C(C)NC=N1)=NC#N,51481-61-9,-,981,Cimetidine,A64,11749573,-,-,-1.35,log(mol/L),1.35,-log(M),Test 1,,-,,-,,,,-
C=CCCl,107-05-1,-,982,3-chloropropylene,A64,11749573,-,-,-1.36,log(mol/L),1.36,-log(M),Test 1,,-,,-,,,,-
NC1=CC=C(C=C1)S(N)(=O)=O,63-74-1,-,983,sulfanilamide,A64,11749573,-,-,-1.36,log(mol/L),1.36,-log(M),Test 1,,-,,-,,,,-
O=C1OC(C2=CC=CC=C12)=O,85-44-9,-,984,phthalic anhydride,A64,11749573,-,-,-1.39,log(mol/L),1.39,-log(M),Test 1,,-,,-,,,,-
CC1=CC(O)=CC=C1C,95-65-8,-,985,"3,4-xylenol",A64,11749573,-,-,-1.41,log(mol/L),1.41,-log(M),Test 1,,-,,-,,,,-
CC(Cl)C,75-29-6,-,986,2-chloropropane,A64,11749573,-,-,-1.41,log(mol/L),1.41,-log(M),Test 1,,-,,-,,,,-
OC1=CC=C(C(O)=O)C=C1,99-96-7,-,987,p-hydroxybenzoic acid,A64,11749573,-,-,-1.41,log(mol/L),1.41,-log(M),Test 1,,-,,-,,,,-
CC1(C)C(C(O)=O)CCC1(C)C(O)=O,124-83-4,-,988,d-camphoric acid,A64,11749573,-,-,-1.42,log(mol/L),1.42,-log(M),Test 1,,-,,-,,,,-
CN(C1C2CC3C(C(C4=C(C3(O)C)C=CC=C4O)=O)=C(C2(C(C(C(NCN5CCCC5)=O)=C1O)=O)O)O)C,751-97-3,-,989,rolitetracycline,A64,11749573,-,-,-1.42,log(mol/L),1.42,-log(M),Test 1,,-,,-,,,,-
CC(CC(C)C)=O,108-10-1,-,990,4-Methyl-2-pentanone,A64,11749573,-,-,-1.42,log(mol/L),1.42,-log(M),Test 1,,-,,-,,,,-
O=C(C1CCCCC1)O,98-89-5,-,991,cyclohexanecarboxylic acid,A64,11749573,-,-,-1.45,log(mol/L),1.45,-log(M),Test 1,,-,,-,,,,-
S=C(NCC)NCC,105-55-5,-,992,"1,3-diethylthiourea",A64,11749573,-,-,-1.46,log(mol/L),1.46,-log(M),Test 1,,-,,-,,,,-
NC(OCCCCC)=O,638-42-6,-,993,n-amyl carbamate,A64,11749573,-,-,-1.47,log(mol/L),1.47,-log(M),Test 1,,-,,-,,,,-
FC(F)(C1=CC(N)=CC=C1)F,98-16-8,-,994,3-trifluoromethylaniline,A64,11749573,-,-,-1.47,log(mol/L),1.47,-log(M),Test 1,,-,,-,,,,-
CCC(O)CCCC,589-82-2,-,995,3-heptanol,A64,11749573,-,-,-1.47,log(mol/L),1.47,-log(M),Test 1,,-,,-,,,,-
O=C1NC=CC(N1)=O,66-22-8,-,996,Uracil,A64,11749573,-,-,-1.48,log(mol/L),1.48,-log(M),Test 1,,-,,-,,,,-
C=CCBr,106-95-6,-,997,3-bromopropylene,A64,11749573,-,-,-1.5,log(mol/L),1.5,-log(M),Test 1,,-,,-,,,,-
C=12C=CC=CC1SC=N2,95-16-9,-,998,benzothiazole,A64,11749573,-,-,-1.5,log(mol/L),1.5,-log(M),Test 1,,-,,-,,,,-