SMILES,CASRN,EXTERNALID,N,NAME,ARTICLEID,PUBMEDID,PAGE,TABLE,Solubility_log(mol/L),UNIT {Water solubility},"Water solubility {measured, converted}",UNIT {Water solubility}.1,Dataset,Temperature,UNIT {Temperature},Ionic strength,UNIT {Ionic strength},comment (chemical),source,pH,UNIT {pH}
O=C1CCC2(C)C(CCC3C2CCC4(C)C3CCC4(C)O)=C1,58-18-4,-,1193,17-methyltestosterone,A64,11749573,-,-,-3.99,log(mol/L),3.99,-log(M),Test 1,,-,,-,,,,-
CC1=C(C)C=C(C)C(C)=C1C,700-12-9,-,1194,pentamethylbenzene,A64,11749573,-,-,-4.0,log(mol/L),4.0,-log(M),Test 1,,-,,-,,,,-
O=C1CCC2(C)C(CCC3C4CCC(O)(C(COC(C)=O)=O)C4(C)CC(C32)=O)=C1,50-04-4,-,1195,cortisone acetate,A64,11749573,-,-,-4.0,log(mol/L),4.0,-log(M),Test 1,,-,,-,,,,-
ClC1=C(Cl)C=CC=C1Cl,87-61-6,-,1196,"1,2,3-trichlorobenzene",A64,11749573,-,-,-4.0,log(mol/L),4.0,-log(M),Test 1,,-,,-,,,,-
S=P(OC)(OC)OC1=CC(C)=C(N(=O)=O)C=C1,122-14-5,-,1197,fenitrothion,A64,11749573,-,-,-4.04,log(mol/L),4.04,-log(M),Test 1,,-,,-,,,,-
CCCCC1=CC=CC=C1,104-51-8,-,1198,n-butylbenzene,A64,11749573,-,-,-4.06,log(mol/L),4.06,-log(M),Test 1,,-,,-,,,,-
BrC1=CC=C(Br)C=C1,106-37-6,-,1199,"1,4-dibromobenzene",A64,11749573,-,-,-4.07,log(mol/L),4.07,-log(M),Test 1,,-,,-,,,,-
CC(C)NC1=NC(NC(C)C)=NC(SC)=N1,7287-19-6,-,1200,prometryn,A64,11749573,-,-,-4.1,log(mol/L),4.1,-log(M),Test 1,,-,,-,,,,-
S=P(OCC)(OCC)SCSCC,298-02-2,-,1201,phorate,A64,11749573,-,-,-4.11,log(mol/L),4.11,-log(M),Test 1,,-,,-,,,,-
COC1=CC=C2C(C3N(CCC4=C3C=C5OCOC5=C4)C)OC(C2=C1OC)=O,118-08-1,-,1202,hydrastine,A64,11749573,-,-,-4.11,log(mol/L),4.11,-log(M),Test 1,,-,,-,,,,-
O=C1C=CC2(C)C(CCC3C2(F)C(O)CC4(C)C3CC(OC(C)=O)C4(O)C(COC(C)=O)=O)=C1,67-78-7,-,1203,triamcinolone diacetate,A64,11749573,-,-,-4.13,log(mol/L),4.13,-log(M),Test 1,,-,,-,,,,-
C1CCCCCCC1,292-64-8,-,1204,cyclooctane,A64,11749573,-,-,-4.15,log(mol/L),4.15,-log(M),Test 1,,-,,-,,,,-
CN1S(C2=CC=CC=C2C(O)=C1C(NC3=NC=CC=C3)=O)(=O)=O,36322-90-4,-,1205,Piroxicam,A64,11749573,-,-,-4.16,log(mol/L),4.16,-log(M),Test 1,,-,,-,,,,-
OC(C1=CC=CN=C1NC2=CC=CC(C(F)(F)F)=C2)=O,4394-00-7,-,1206,Niflumic acid,A64,11749573,-,-,-4.17,log(mol/L),4.17,-log(M),Test 1,,-,,-,,,,-
ClC(=C(C=C(Cl)Cl)Cl)Cl,55880-77-8,-,1207,pentachlorobutadiene,A64,11749573,-,-,-4.23,log(mol/L),4.23,-log(M),Test 1,,-,,-,,,,-
CC(N(C)C)CN1C2=C(C=CC=C2)SC3=C1C=CC=C3,60-87-7,-,1208,Promethazine,A64,11749573,-,-,-4.26,log(mol/L),4.26,-log(M),Test 1,,-,,-,,,,-
O=C1CCC2(C)C(CC(SC(C)=O)C3C2CCC4(C)C3CCC45OC(CC5)=O)=C1,52-01-7,-,1209,spironolactone,A64,11749573,-,-,-4.28,log(mol/L),4.28,-log(M),Test 1,,-,,-,,,,-
OC1=C(Cl)C(Cl)=C(Cl)C(Cl)=C1Cl,87-86-5,-,1210,Pentachlorophenol,A64,11749573,-,-,-4.28,log(mol/L),4.28,-log(M),Test 1,,-,,-,,,,-
OC1C2C3C(C(CC3)C(CCC(O)=O)C)(CCC2C4(C(C1)CC(O)CC4)C)C,128-13-2,-,1211,ursodeoxycholic acid,A64,11749573,-,,-4.29,log(mol/L),4.29,-log(M),Test 1,,-,,-,,,,-
CCC1=CC=2C=CC=CC2C=C1,939-27-5,-,1212,2-ethylnaphthalene,A64,11749573,-,-,-4.29,log(mol/L),4.29,-log(M),Test 1,,-,,-,,,,-
OC1=CC=2CCC3C(CCC4(C)C3CCC4(C#C)O)C2C=C1,57-63-6,-,1213,ethinyl estradiol,A64,11749573,-,-,-4.3,log(mol/L),4.3,-log(M),Test 1,,-,,-,,,,-
CN(C)CCCN1C2=C(SC3=C1C=CC=C3)C=CC=C2,58-40-2,-,1214,Promazine,A64,11749573,-,-,-4.3,log(mol/L),4.3,-log(M),Test 1,,-,,-,,,,-
COP(OC)(OC1=C(Cl)C=C(N(=O)=O)C=C1)=S,2463-84-5,-,1215,dicaphton,A64,11749573,-,-,-4.31,log(mol/L),4.31,-log(M),Test 1,,-,,-,,,,-
O=C1C=CC2(C)C(CCC3C2(F)C(O)CC4(C)C3CC5C4(OC(C)(C)O5)C(CO)=O)=C1,76-25-5,-,1216,triamcinolone acetonide,A64,11749573,-,-,-4.32,log(mol/L),4.32,-log(M),Test 1,,-,,-,,,,-
C=12C=CC=CC1SC3=C2C=CC=C3,132-65-0,-,1217,dibenzothiophene,A64,11749573,-,-,-4.38,log(mol/L),4.38,-log(M),Test 1,,-,,-,,,,-
OC(C1=C(Cl)C=CC=C1)(C2=CN=CN=C2)C3=CC=C(Cl)C=C3,60168-88-9,-,1218,fenarimol,A64,11749573,-,-,-4.38,log(mol/L),4.38,-log(M),Test 1,,-,,-,,,,-
O=C1C2C3=CC(OC)=C(OC)C=C3OCC2OC4=C1C=CC5=C4CC(C(C)=C)O5,83-79-4,-,1219,rotenone,A64,11749573,-,-,-4.42,log(mol/L),4.42,-log(M),Test 1,,-,,-,,,,-
CCC(C1=CC=C(C=C1)O)C(C2=CC=C(O)C=C2)CC,5635-50-7,-,1220,hexestrol,A64,11749573,-,-,-4.43,log(mol/L),4.43,-log(M),Test 1,,-,,-,,,,-
O=C(CCCN1CCC(C2=CC=C(Cl)C=C2)(O)CC1)C3=CC=C(F)C=C3,52-86-8,-,1221,Haloperidol,A64,11749573,-,-,-4.43,log(mol/L),4.43,-log(M),Test 1,,-,,-,,,,-
CCCCCCCBr,629-04-9,-,1222,1-bromoheptane,A64,11749573,-,-,-4.43,log(mol/L),4.43,-log(M),Test 1,,-,,-,,,,-
CN(CCC=C1C2=CC=CC=C2CCC3=C1C=CC=C3)C,50-48-6,-,1223,Amitriptyline,A64,11749573,-,-,-4.46,log(mol/L),4.46,-log(M),Test 1,,-,,-,,,,-
O=N(C1=C(C)C(N(=O)=O)=CC(=C1OC(C)=O)C(C)(C)C)=O,-,-,1224,medinoterb acetate,A64,11749573,-,-,-4.47,log(mol/L),4.47,-log(M),Test 1,,-,,-,,,,-
ClC1=CC(Cl)=CC(Cl)=C1,108-70-3,-,1225,"1,3,5-trichlorobenzene",A64,11749573,-,-,-4.48,log(mol/L),4.48,-log(M),Test 1,,-,,-,,,,-
CC1(CC(C)CC1)C,4516-69-2,-,1226,"1,1,3-trimethylcyclopentane",A64,11749573,-,-,-4.48,log(mol/L),4.48,-log(M),Test 1,,-,,-,,,,-
FC(F)(F)C1=CC2=C(C=C1)SC3=C(C=CC=C3)N2CCCN4CCN(C)CC4,117-89-5,-,1227,Trifluoperazine,A64,11749573,-,-,-4.52,log(mol/L),4.52,-log(M),Test 1,,-,,-,,,,-
O=C(OC(C)C)C(C1=CC=C(Cl)C=C1)(O)C2=CC=C(Cl)C=C2,-,-,1228,chloropropylate,A64,11749573,-,-,-4.53,log(mol/L),4.53,-log(M),Test 1,,-,,-,,,,-
S=P(OC)(OC)OC1=CC(C)=C(SC)C=C1,55-38-9,-,1229,fenthion,A64,11749573,-,-,-4.57,log(mol/L),4.57,-log(M),Test 1,,-,,-,,,,-
CC12C=CC(C=C2CCC3C1C(O)CC4(C3CCC4(O)C(COC(C(C)(C)C)=O)=O)C)=O,1107-99-9,-,1230,prednisolone-21-trimethylacetate,A64,11749573,-,-,-4.58,log(mol/L),4.58,-log(M),Test 1,,-,,-,,,,-
O=C1C2=CC=CC=C2N=C(C3=CC=CC=C3)O1,1022-46-4,-,1231,"2-phenyl-3,1-benzoxazin-4-one",A64,11749573,-,-,-4.61,log(mol/L),4.61,-log(M),Test 1,,-,,-,,,,-
C1(CCC2=CC=CC=C2)=CC=CC=C1,103-29-7,-,1232,bibenzyl,A64,11749573,-,-,-4.62,log(mol/L),4.62,-log(M),Test 1,,-,,-,,,,-
CC12C(C(COC(C)=O)=O)CCC1C3CCC4=CC(=O)CCC4(C3CC2)C,56-47-3,-,1233,deoxycorticosterone acetate,A64,11749573,-,-,-4.63,log(mol/L),4.63,-log(M),Test 1,,-,,-,,,,-
OC1CC=2C(CC1)(C)C3C(CC2)C4C(CC3)(C)C(CC4)C(C)=O,145-13-1,-,1234,pregnenolone,A64,11749573,-,-,-4.65,log(mol/L),4.65,-log(M),Test 1,,-,,-,,,,-
CC1=CC=2C=CC=CC2C=C1C,581-40-8,-,1235,"2,3-dimethylnaphthalene",A64,11749573,-,-,-4.72,log(mol/L),4.72,-log(M),Test 1,,-,,-,,,,-
OC=1C2=C(C=CC=C2)C=C3C=CC=CC31,529-86-2,-,1236,1-anthranol,A64,11749573,-,-,-4.73,log(mol/L),4.73,-log(M),Test 1,,-,,-,,,,-
CC(=O)OC1(CCC2C3CCC4=CC(=O)CCC4C3CCC12C)C#C,51-98-9,-,1237,norethisterone acetate,A64,11749573,-,-,-4.79,log(mol/L),4.79,-log(M),Test 1,,-,,-,,,,-
ClC1=CC(Cl)=C(OP(OC)(OC)=S)N=C1Cl,5598-13-0,-,1238,chlorpyriphos methyl,A64,11749573,-,-,-4.82,log(mol/L),4.82,-log(M),Test 1,,-,,-,,,,-
CC12CCC3C4=C(CCC3C1CCC2O)C=C(O)C=C4,57-91-0,-,1239,alpha-estradiol,A64,11749573,-,-,-4.84,log(mol/L),4.84,-log(M),Test 1,,-,,-,,,,-
O=C(SCC(Cl)=C(Cl)Cl)N(C(C)C)C(C)C,2303-17-5,-,1240,triallate,A64,11749573,-,-,-4.88,log(mol/L),4.88,-log(M),Test 1,,-,,-,,,,-
O=C(N(C)C)NC1=CC=C(OC2=CC=C(Cl)C=C2)C=C1,1982-47-4,-,1241,chloroxuron,A64,11749573,-,-,-4.89,log(mol/L),4.89,-log(M),Test 1,,-,,-,,,,-
CC1=CC=2C=CC(C)=CC2C=C1,581-42-0,-,1242,"2,6-dimethylnaphthalene",A64,11749573,-,-,-4.89,log(mol/L),4.89,-log(M),Test 1,,-,,-,,,,-
ClC(C(Cl)=C(Cl)Cl)=C(Cl)Cl,87-68-3,-,1243,hexachlorobutadiene,A64,11749573,-,-,-4.91,log(mol/L),4.91,-log(M),Test 1,,-,,-,,,,-
NS(C1=CC(N(=O)=O)=C(N(CCC)CCC)C(N(=O)=O)=C1)(=O)=O,19044-88-3,-,1244,oryzalin,A64,11749573,-,-,-5.16,log(mol/L),5.16,-log(M),Test 1,,-,,-,,,,-
ClC1=CC=C(C2=CC=CC=C2)C=C1,2051-62-9,-,1245,4-chlorobiphenyl,A64,11749573,-,-,-5.2,log(mol/L),5.2,-log(M),Test 1,,-,,-,,,,-
CCCCCCC1=CC=CC=C1,1077-16-3,-,1246,n-hexylbenzene,A64,11749573,-,-,-5.21,log(mol/L),5.21,-log(M),Test 1,,-,,-,,,,-
OC1=CC=2C=CC3=C(CCC4(C)C3CCC4=O)C2C=C1,517-09-9,-,1247,equilenin,A64,11749573,-,-,-5.24,log(mol/L),5.24,-log(M),Test 1,,-,,-,,,,-
O=C(OCC1=CC=CC(OC2=CC=CC=C2)=C1)C3C(C=C(C)C)C3(C)C,26002-80-2,-,1248,phenothrin,A64,11749573,-,-,-5.24,log(mol/L),5.24,-log(M),Test 1,,-,,-,,,,-
C=12C=3C=CC=CC3C=CC1C=CC=C2,85-01-8,-,1249,phenantherene,A64,11749573,-,-,-5.26,log(mol/L),5.26,-log(M),Test 1,,-,,-,,,,-
CC=1C2=C(OC(C1Cl)=O)C=C(OP(OCC)(OCC)=S)C=C2,56-72-4,-,1250,coumaphos,A64,11749573,-,-,-5.38,log(mol/L),5.38,-log(M),Test 1,,-,,-,,,,-
OC1C=CC2C1C3(C(Cl)=C(C2(C3(Cl)Cl)Cl)Cl)Cl,2597-11-7,-,1251,1-hydroxychlordene,A64,11749573,-,-,-5.46,log(mol/L),5.46,-log(M),Test 1,,-,,-,,,,-
N#CC1=C(Cl)C(Cl)=C(Cl)C(C#N)=C1Cl,1897-45-6,-,1252,chlorothalonil,A64,11749573,-,-,-5.64,log(mol/L),5.64,-log(M),Test 1,,-,,-,,,,-
O=N(=O)C1=CC(C(F)(F)F)=CC(N(=O)=O)=C1N(CCC)CCC,1582-09-8,-,1253,trifluralin,A64,11749573,-,-,-5.68,log(mol/L),5.68,-log(M),Test 1,,-,,-,,,,-
S=P(OCC)(OCC)SCSC1=CC=C(Cl)C=C1,786-19-6,-,1254,carbophenothion,A64,11749573,-,-,-5.74,log(mol/L),5.74,-log(M),Test 1,,-,,-,,,,-
ClC1=CC=CC(C2=CC(Cl)=CC=C2)=C1,2050-67-1,-,1255,"3,3?-pcb",A64,11749573,-,-,-5.8,log(mol/L),5.8,-log(M),Test 1,,-,,-,,,,-
CC=1C=2C=CC=CC2C=C3C1C=CC=C3,779-02-2,-,1256,9-methylanthracene,A64,11749573,-,-,-5.89,log(mol/L),5.89,-log(M),Test 1,,-,,-,,,,-
C12=C3C4=CC=C1CCCC2=CC=C3CCC4,1732-13-4,-,1257,"1,2,3,6,7,8-hexahydropyrene",A64,11749573,-,-,-5.96,log(mol/L),5.96,-log(M),Test 1,,-,,-,,,,-
ClC1=CC(C2=CC=CC=C2Cl)=C(Cl)C=C1,37680-65-2,-,1258,"2,2?,5-pcb",A64,11749573,-,-,-6.02,log(mol/L),6.02,-log(M),Test 1,,-,,-,,,,-
S=P(OC)(OC)OC1=CC(Cl)=C(Br)C=C1Cl,2104-96-3,-,1259,bromophos,A64,11749573,-,-,-6.09,log(mol/L),6.09,-log(M),Test 1,,-,,-,,,,-
ClC12C3C4C5C(O5)C(C4)C3C(C(=C1Cl)Cl)(Cl)C2(Cl)Cl,72-20-8,-,1260,endrin,A64,11749573,-,-,-6.18,log(mol/L),6.18,-log(M),Test 1,,-,,-,,,,-
ClC1=CC=C(C2=CC=C(C=C2Cl)Cl)C=C1,7012-37-5,-,1261,"2,4,4?-pcb",A64,11749573,-,-,-6.21,log(mol/L),6.21,-log(M),Test 1,,-,,-,,,,-
ClC12C(Cl)=C(Cl)C(C1(Cl)Cl)(C3C(C4C(C23)O4)Cl)Cl,1024-57-3,-,1262,heptachlor epoxide,A64,11749573,-,-,-6.29,log(mol/L),6.29,-log(M),Test 1,,-,,-,,,,-
CC1(C)C(C=C(Cl)Cl)C1C(OCC2=CC=CC(OC3=CC=CC=C3)=C2)=O,52645-53-1,-,1263,permethrin,A64,11749573,-,-,-6.29,log(mol/L),6.29,-log(M),Test 1,,-,,-,,,,-
ClC1=CC=C(Cl)C(C2=CC=CC=C2)=C1Cl,55702-45-9,-,1264,"2,3,6-pcb",A64,11749573,-,-,-6.29,log(mol/L),6.29,-log(M),Test 1,,-,,-,,,,-
ClC12C(Cl)=C(Cl)C(C3C1C(Cl)C=C3)(Cl)C2(Cl)Cl,76-44-8,-,1265,heptachlor,A64,11749573,-,-,-6.32,log(mol/L),6.32,-log(M),Test 1,,-,,-,,,,-
ClC1=CC(Cl)=CC=C1C2=CC=C(Cl)C=C2Cl,2437-79-8,-,1266,"2,2?,4,4?-pcb",A64,11749573,-,-,-6.51,log(mol/L),6.51,-log(M),Test 1,,-,,-,,,,-
ClC(Cl)(Cl)C(C1=CC=C(Cl)C=C1)C2=CC=CC=C2Cl,789-02-6,-,1267,"o,p?-ddt",A64,11749573,-,-,-6.62,log(mol/L),6.62,-log(M),Test 1,,-,,-,,,,-
O=P(OC1=CC=C(O)C=C1C)(OC2=CC(O)=CC=C2C)OC3=C(O)C=CC=C3C,1330-78-5,-,1268,tricresyl phosphate,A64,11749573,-,-,-6.7,log(mol/L),6.7,-log(M),Test 1,,-,,-,,,,-
CCCCCCCCCCCCCCCC(O)=O,57-10-3,-,1269,palmitic acid,A64,11749573,-,-,-6.81,log(mol/L),6.81,-log(M),Test 1,,-,,-,,,,-
ClC(Cl)(Cl)C(C1=CC=C(OC)C=C1)C2=CC=C(OC)C=C2,72-43-5,-,1270,methoxychlor,A64,11749573,-,-,-6.89,log(mol/L),6.89,-log(M),Test 1,,-,,-,,,,-
O=C(OCC(CC)CCCC)C1=CC=CC=C1C(OCC(CC)CCCC)=O,117-81-7,-,1271,di-(2-ethylhexyl)-phthalate,A64,11749573,-,-,-6.96,log(mol/L),6.96,-log(M),Test 1,,-,,-,,,,-
ClC1=CC=C(Cl)C=C1C2=CC(Cl)=CC=C2Cl,35693-99-3,-,1272,"2,2?,5,5?-pcb",A64,11749573,-,-,-7.0,log(mol/L),7.0,-log(M),Test 1,,-,,-,,,,-
ClC1=C(C=CC(Cl)=C1Cl)C2=C(Cl)C(Cl)=CC=C2,52663-62-4,-,1273,"2,2?,3,3?,4-pcb",A64,11749573,-,-,-7.05,log(mol/L),7.05,-log(M),Test 1,,-,,-,,,,-
ClC1=C(Cl)C(Cl)=C(Cl)C=C1C2=CC=CC=C2,33284-53-6,-,1274,"2,3,4,5-pcb",A64,11749573,-,-,-7.16,log(mol/L),7.16,-log(M),Test 1,,-,,-,,,,-
CCCCCCCCCCCCCCCCO,36653-82-4,-,1275,cetyl alcohol,A64,11749573,-,-,-7.26,log(mol/L),7.26,-log(M),Test 1,,-,,-,,,,-
ClC12C3C(C4C=CC3C4)C(C1(Cl)Cl)(Cl)C(Cl)=C2Cl,309-00-2,-,1276,aldrin,A64,11749573,-,-,-7.33,log(mol/L),7.33,-log(M),Test 1,,-,,-,,,,-
C=12C=3C=4C5=C(C=CC=C5)C1C=CC=C2C=CC3C=CC4,192-97-2,-,1277,benzo(e)pyrene,A64,11749573,-,-,-7.8,log(mol/L),7.8,-log(M),Test 1,,-,,-,,,,-
ClC1=CC=C(Cl)C(C2=CC=C(Cl)C(Cl)=C2Cl)=C1,38380-02-8,-,1278,"2,2?,3,4,5?-pcb",A64,11749573,-,-,-7.91,log(mol/L),7.91,-log(M),Test 1,,-,,-,,,,-
C12=CC=3C=CC=CC3C=C1CC4=C2C=CC=C4,243-17-4,-,1279,benzo(b)fluorene,A64,11749573,-,-,-8.04,log(mol/L),8.04,-log(M),Test 1,,-,,-,,,,-
C12=C(C=CC3=C1C=CC4=C3C=CC=C4)C=CC=C2,218-01-9,-,1280,Chrysene,A64,11749573,-,-,-8.06,log(mol/L),8.06,-log(M),Test 1,,-,,-,,,,-
ClC1=C(Cl)C(Cl)=CC=C1C2=C(Cl)C(Cl)=C(Cl)C=C2Cl,52663-71-5,-,1281,"2,2?,3,3?,4,4?,6-pcb",A64,11749573,-,-,-8.3,log(mol/L),8.3,-log(M),Test 1,,-,,-,,,,-
ClC1=C(Cl)C=C(Cl)C(C2=CC=C(Cl)C(Cl)=C2Cl)=C1,35065-28-2,-,1282,"2,2?,3,4,4?,5?-pcb",A64,11749573,-,-,-8.32,log(mol/L),8.32,-log(M),Test 1,,-,,-,,,,-
ClC1=C(Cl)C(Cl)=C(Cl)C(C2=CC=CC(Cl)=C2Cl)=C1,55215-18-4,-,1283,"2,2?,3,3?,4,5-pcb",A64,11749573,-,-,-8.42,log(mol/L),8.42,-log(M),Test 1,,-,,-,,,,-
C=12C=3C4=C(C=C5C=CC=CC5=C4)C1C=CC=C2C=CC3,207-08-9,-,1284,benzo(k)fluoranthene,A64,11749573,-,-,-8.49,log(mol/L),8.49,-log(M),Test 1,,-,,-,,,,-
C=12C=C3C=C4C=CC=CC4=CC3=CC1C=CC=C2,92-24-0,-,1285,naphthacene,A64,11749573,-,-,-8.6,log(mol/L),8.6,-log(M),Test 1,,-,,-,,,,-
ClC1=CC=C(Cl)C(=C1Cl)C2=C(Cl)C=CC(Cl)=C2Cl,38411-22-2,-,1286,"2,2?,3,3?,6,6?-pcb",A64,11749573,-,-,-8.65,log(mol/L),8.65,-log(M),Test 1,,-,,-,,,,-
C=12C=3C=CC=CC3C=CC1C=C4C(C=CC5=C4C=CC=C5)=C2,53-70-3,-,1287,"dibenz(a,h)anthracene",A64,11749573,-,-,-8.66,log(mol/L),8.66,-log(M),Test 1,,-,,-,,,,-
C12=C3C=CC4=C2C(C=5C=6C1=C(C=C3)C=CC6C=CC5)=CC=C4,191-24-2,-,1288,benzo(ghi)perylene,A64,11749573,-,-,-9.03,log(mol/L),9.03,-log(M),Test 1,,-,,-,,,,-
ClC1=C(C2=CC(Cl)=C(Cl)C(Cl)=C2Cl)C(Cl)=C(Cl)C(Cl)=C1Cl,40186-72-9,-,1289,"2,2?,3,3?,4,4?,5,5?,6-pcb",A64,11749573,-,-,-10.26,log(mol/L),10.26,-log(M),Test 1,,-,,-,,,,-
ClC1=C(Cl)C(Cl)=C(Cl)C(Cl)=C1C2=C(Cl)C(Cl)=CC(Cl)=C2Cl,52663-77-1,-,1290,"2,2?,3,3?,4,5,5?,6,6?-pcb",A64,11749573,-,-,-10.41,log(mol/L),10.41,-log(M),Test 1,,-,,-,,,,-
ClC1=CC(C2=CC(Cl)=C(C=C2Cl)Cl)=C(Cl)C=C1,37680-73-2,-,1291,"2,2?,4,5,5?-pcb",A64,11749573,-,-,-7.89,log(mol/L),7.89,-log(M),Test 2,,-,,-,,,,-
NC1=CC=C(C(OCC)=O)C=C1,94-09-7,-,1292,Benzocaine,A64,11749573,-,-,-2.32,log(mol/L),2.32,-log(M),Test 2,,-,,-,,,,-
O=C(C)OC1=C(C(O)=O)C=CC=C1,50-78-2,-,1293,Acetylsalicylic acid,A64,11749573,-,-,-1.61,log(mol/L),1.61,-log(M),Test 2,,-,,-,,,,-
O=C1N(C)C(N(C2=C1N=CN2)C)=O,58-55-9,-,1294,Theophylline,A64,11749573,-,-,-1.37,log(mol/L),1.37,-log(M),Test 2,,-,,-,,,,-
CN1C(C)=CC(N1C2=CC=CC=C2)=O,60-80-0,-,1295,Antipyrine,A64,11749573,-,-,0.39,log(mol/L),-0.39,-log(M),Test 2,,-,,-,,,,-
CCNC1=NC(NC(C)C)=NC(Cl)=N1,1912-24-9,-,1296,atrazine,A64,11749573,-,-,-3.55,log(mol/L),3.55,-log(M),Test 2,,-,,-,,,,-
O=C1C(CC)(C(=O)NC(N1)=O)C2=CC=CC=C2,50-06-6,-,1297,Phenobarbital,A64,11749573,-,-,-2.34,log(mol/L),2.34,-log(M),Test 2,,-,,-,,,,-
O=C(N(C)C)NC1=CC(Cl)=C(Cl)C=C1,330-54-1,-,1298,diuron,A64,11749573,-,-,-3.76,log(mol/L),3.76,-log(M),Test 2,,-,,-,,,,-
O=C1NC(CN1N=CC2=CC=C(N(=O)=O)O2)=O,67-20-9,-,1299,nitrofurantoin,A64,11749573,-,-,-3.38,log(mol/L),3.38,-log(M),Test 2,,-,,-,,,,-
O=C1NC(NC1(C2=CC=CC=C2)C3=CC=CC=C3)=O,57-41-0,-,1300,Phenytoin,A64,11749573,-,-,-3.99,log(mol/L),3.99,-log(M),Test 2,,-,,-,,,,-
O=C1CN=C(C2=CC=CC=C2)C3=C(C=CC(Cl)=C3)N1C,439-14-5,-,1301,Diazepam,A64,11749573,-,-,-3.76,log(mol/L),3.76,-log(M),Test 2,,-,,-,,,,-
CC12C(CCC3C1CCC4(C)C3CCC4O)=CC(CC2)=O,58-22-0,-,1302,Testosterone,A64,11749573,-,-,-4.07,log(mol/L),4.07,-log(M),Test 2,,-,,-,,,,-
S=P(OCC)(OCC)OC1=CC=C(N(=O)=O)C=C1,56-38-2,-,1304,parathion,A64,11749573,-,-,-4.29,log(mol/L),4.29,-log(M),Test 2,,-,,-,,,,-
S=P(OCC)(OCC)OC1=NC(C(C)C)=NC(C)=C1,333-41-5,-,1305,diazinon,A64,11749573,-,-,-3.76,log(mol/L),3.76,-log(M),Test 2,,-,,-,,,,-
OC1=CC=C(C=C1)C2(C3=CC=CC=C3C(O2)=O)C4=CC=C(O)C=C4,77-09-8,-,1306,phenolphthalein,A64,11749573,-,-,-2.9,log(mol/L),2.9,-log(M),Test 2,,-,,-,,,,-
O=C(OCC)C(CC(OCC)=O)SP(OC)(OC)=S,121-75-5,-,1307,malathion,A64,11749573,-,-,-3.36,log(mol/L),3.36,-log(M),Test 2,,-,,-,,,,-
S=P(OC1=NC(Cl)=C(Cl)C=C1Cl)(OCC)OCC,2921-88-2,-,1308,chlorpyriphos,A64,11749573,-,-,-5.67,log(mol/L),5.67,-log(M),Test 2,,-,,-,,,,-
CCCCCC(O)C=CC1C(O)CC(C1CC=CCCCC(O)=O)=O,363-24-6,-,1309,Prostaglandin E2,A64,11749573,-,-,-2.47,log(mol/L),2.47,-log(M),Test 2,,-,,-,,,,-
ClC1=CC=C(C(C2=CC=C(Cl)C=C2)C(Cl)(Cl)Cl)C=C1,50-29-3,-,1310,"p,p?-ddt",A64,11749573,-,-,-8.08,log(mol/L),8.08,-log(M),Test 2,,-,,-,,,,-
ClC12C(Cl)(Cl)C(C(=C1Cl)Cl)(Cl)C3C(Cl)C(Cl)CC32,57-74-9,-,1311,chlordane,A64,11749573,-,-,-6.86,log(mol/L),6.86,-log(M),Test 2,,-,,-,,,,-
ClC1C(Cl)C(Cl)C(Cl)C(Cl)C1Cl,58-89-9,-,1303,gamma-hexachlorocyclohexane,A64,11749573,-,-,-4.6,log(mol/L),4.6,-log(M),Train,,-,,-,,,,-
O=C1C(CCCC)C(N(N1C2=CC=CC=C2)C3=CC=CC=C3)=O,50-33-9,-,651,Phenylbutazone,A64,11749573,-,-,-3.81,log(mol/L),3.81,-log(M),Train,,-,,-,,,,-
BrCCCCCC,111-25-1,-,652,1-bromohexane,A64,11749573,-,-,-3.81,log(mol/L),3.81,-log(M),Train,,-,,-,,,,-
C12CC(O)CCC1(C)C3C(C4CCC(C(CCC(O)=O)C)C4(C)CC3)CC2O,83-49-8,-,653,hyodeoxycholic acid,A64,11749573,-,-,-3.82,log(mol/L),3.82,-log(M),Train,,-,,-,,,,-
C1=CC(OCCCC)=CC=C1C(=O)OCCN(CC)CC,3772-43-8,-,654,stadacaine,A64,11749573,-,-,-3.84,log(mol/L),3.84,-log(M),Train,,-,,-,,,,-
CC(CC)C1=CC=CC=C1,135-98-8,-,655,2-butylbenzene,A64,11749573,-,-,-3.89,log(mol/L),3.89,-log(M),Train,,-,,-,,,,-
ClC=1C=2C=CC=CC2C=CC1,90-13-1,-,656,1-chloronaphthalene,A64,11749573,-,-,-3.93,log(mol/L),3.93,-log(M),Train,,-,,-,,,,-
CCCCCCOC(C1=CC=C(N)C=C1)=O,13476-55-6,-,657,hexyl-4-aminobenzoate,A64,11749573,-,-,-3.95,log(mol/L),3.95,-log(M),Train,,-,,-,,,,-
OC1=C(C=C(Cl)C=C1)CC2=CC(Cl)=CC=C2O,97-23-4,-,658,dichlorphen,A64,11749573,-,-,-3.95,log(mol/L),3.95,-log(M),Train,,-,,-,,,,-
C=12C=CC=C3C=CC(C31)=CC=C2,208-96-8,-,659,acenaphthylene,A64,11749573,-,-,-3.96,log(mol/L),3.96,-log(M),Train,,-,,-,,,,-
CC12CCC3C4=C(CCC3C1CCC2=O)C=C(O)C=C4,53-16-7,-,660,estrone,A64,11749573,-,-,-3.96,log(mol/L),3.96,-log(M),Train,,-,,-,,,,-
CC=1C=2C=CC3=C(N=CC=C3C)C2N=CC1,491-01-0,-,661,"4,7-dimethyl-1,10-phenanthroline",A64,11749573,-,-,-3.97,log(mol/L),3.97,-log(M),Train,,-,,-,,,,-
OC1CCN(CC1)CCCN2C3=CC=CC=C3SC4=C2C=C(C#N)C=C4,2622-26-6,-,662,Pericyazine,A64,11749573,-,-,-3.98,log(mol/L),3.98,-log(M),Train,,-,,-,,,,-
CC(CC1=CC=C(C=C1)C(C)C(O)=O)C,15687-27-1,-,663,Ibuprofen,A64,11749573,-,-,-3.99,log(mol/L),3.99,-log(M),Train,,-,,-,,,,-
CC(C)(C)NC1=NC(SC)=NC(NCC)=N1,886-50-0,-,664,terbutryne,A64,11749573,-,-,-4.0,log(mol/L),4.0,-log(M),Train,,-,,-,,,,-
CC1=CCC(C(C)=C)CC1,5989-27-5,-,665,d-limonene,A64,11749573,-,-,-4.0,log(mol/L),4.0,-log(M),Train,,-,,-,,,,-
OC1=C(Cl)C(Cl)=C(Cl)C(Cl)=C1OC,2539-17-5,-,666,tetrachloroguaiacol,A64,11749573,-,-,-4.02,log(mol/L),4.02,-log(M),Train,,-,,-,,,,-
O=C1C(Cl)=C(NC)C=NN1C2=CC(C(F)(F)F)=CC=C2,27314-13-2,-,667,norflurazon,A64,11749573,-,-,-4.04,log(mol/L),4.04,-log(M),Train,,-,,-,,,,-
CCNC1=NC(N(CC)CC)=NC(Cl)=N1,1912-26-1,-,668,trietazine,A64,11749573,-,-,-4.06,log(mol/L),4.06,-log(M),Train,,-,,-,,,,-
O=C(SCC(Cl)=CCl)N(C(C)C)C(C)C,2303-16-4,-,669,diallate,A64,11749573,-,-,-4.08,log(mol/L),4.08,-log(M),Train,,-,,-,,,,-
ClC1=CC=2C(C3=CC=CC=C3Cl)=NCC4=NN=C(C)N4C2C=C1,28911-01-5,-,670,Triazolam,A64,11749573,-,-,-4.08,log(mol/L),4.08,-log(M),Train,,-,,-,,,,-
CCCCCCCCCC(OCC)=O,110-38-3,-,671,ethyl caprinate,A64,11749573,-,-,-4.1,log(mol/L),4.1,-log(M),Train,,-,,-,,,,-
C12C3CC(C)C4=CC(C=CC4(C)C3(F)C(O)CC1(C)C(C(C)=O)(O)CC2)=O,426-13-1,-,672,fluoromethasone,A64,11749573,-,-,-4.1,log(mol/L),4.1,-log(M),Train,,-,,-,,,,-
O=C(NC1=CC=CC=C1)NC2CCCCC2C,1982-49-6,-,673,siduron,A64,11749573,-,-,-4.11,log(mol/L),4.11,-log(M),Train,,-,,-,,,,-
O=C(C1C(=O)C2=CC=CC=C2C1=O)C(C)(C)C,83-26-1,-,674,pindone,A64,11749573,-,-,-4.11,log(mol/L),4.11,-log(M),Train,,-,,-,,,,-
CC(C)CC1=CC=CC=C1,538-93-2,-,675,isobutylbenzene,A64,11749573,-,-,-4.12,log(mol/L),4.12,-log(M),Train,,-,,-,,,,-
CC12C(=CCC3C1CCC4(C3CCC4=O)C)CC(CC2)O,53-43-0,-,676,prasterone,A64,11749573,-,-,-4.12,log(mol/L),4.12,-log(M),Train,,-,,-,,,,-
CC=1C=2C=CC=CC2C(C)=CC1,571-58-4,-,677,"1,4-dimethylnaphthalene",A64,11749573,-,-,-4.14,log(mol/L),4.14,-log(M),Train,,-,,-,,,,-
ClC1=CC=2C=CC=CC2C=C1,91-58-7,-,678,2-chloronaphthalene,A64,11749573,-,-,-4.14,log(mol/L),4.14,-log(M),Train,,-,,-,,,,-
CC(C)(C1=CC=CC=C1)CC,2049-95-8,-,679,t-amylbenzene,A64,11749573,-,-,-4.15,log(mol/L),4.15,-log(M),Train,,-,,-,,,,-