SMILES,CASRN,EXTERNALID,N,NAME,ARTICLEID,PUBMEDID,PAGE,TABLE,Solubility_log(mol/L),UNIT {Water solubility},"Water solubility {measured, converted}",UNIT {Water solubility}.1,Dataset,Temperature,UNIT {Temperature},Ionic strength,UNIT {Ionic strength},comment (chemical),source,pH,UNIT {pH}
C1CNCCN1,110-85-0,-,12,piperazine,A171,10850781,-,-,1.07,log(mol/L),-1.07,-log(M),Train,,-,,-,,,,-
C1CCCCN1,110-89-4,-,13,piperidine,A171,10850781,-,-,1.07,log(mol/L),-1.07,-log(M),Train,,-,,-,,,,-
OC1=CC=NC=C1,626-64-2,-,14,4-hydroxypyridine,A171,10850781,-,-,1.02,log(mol/L),-1.02,-log(M),Train,,-,,-,,,,-
OC1=NC=CC=C1,72762-00-6,-,15,2-hydroxypyridine,A171,10850781,-,-,1.02,log(mol/L),-1.02,-log(M),Train,,-,,-,,,,-
OC(CCCC(O)=O)=O,110-94-1,-,16,glutaric acid,A171,10850781,-,-,1.0,log(mol/L),-1.0,-log(M),Train,,-,,-,,,,-
CN1CCOCC1,109-02-4,-,17,n-methylmorpholine,A171,10850781,-,-,1.0,log(mol/L),-1.0,-log(M),Train,,-,,-,,,,-
NC(OC)=O,598-55-0,-,18,o-methyl carbamate,A171,10850781,-,-,0.97,log(mol/L),-0.97,-log(M),Train,,-,,-,,,,-
O=C1C=CC=CN1C,694-85-9,-,19,n-methyl-2-pyridone,A171,10850781,-,-,0.96,log(mol/L),-0.96,-log(M),Train,,-,,-,,,,-
OC(CCl)=O,79-11-8,-,20,chloroacetic acid,A171,10850781,-,-,0.93,log(mol/L),-0.93,-log(M),Train,,-,,-,,,,-
NC(OCC)=O,51-79-6,-,21,o-ethyl carbamate,A171,10850781,-,-,0.85,log(mol/L),-0.85,-log(M),Train,,-,,-,,,,-
O=C(C1=CCCN(C)C1)OC,63-75-2,-,22,arecoline,A171,10850781,-,-,0.81,log(mol/L),-0.81,-log(M),Train,,-,,-,,,,-
OC1=CC(O)=CC=C1,108-46-3,-,23,"1,3-benzenediol",A171,10850781,-,-,0.81,log(mol/L),-0.81,-log(M),Train,,-,,-,,,,-
C1=CN=CC=C1,110-86-1,-,24,pyridine,A171,10850781,-,,0.76,log(mol/L),-0.76,-log(M),Train,,-,,-,,,,-
CC1CNCCN1,109-07-9,-,25,2-methylpiperazine,A171,10850781,-,-,0.74,log(mol/L),-0.74,-log(M),Train,,-,,-,,,,-
C[N+](C)(C)CC(=O)[O-],107-43-7,-,26,Betaine,A171,10850781,-,,0.72,log(mol/L),-0.72,-log(M),Train,,-,,-,,,,-
OC(C(O)CO)C(O)C(=O)CO,57-48-7,-,27,-,A171,10850781,-,,0.64,log(mol/L),-0.64,-log(M),Train,,-,,-,,,,-
OC1=C(O)C=CC=C1,120-80-9,-,28,"1,2-benzenediol",A171,10850781,-,-,0.62,log(mol/L),-0.62,-log(M),Train,,-,,-,,,,-
NC(C1=CC=CN=C1)=O,98-92-0,-,29,nicotinamide,A171,10850781,-,-,0.61,log(mol/L),-0.61,-log(M),Train,,-,,-,,,,-
O=C1NC=NC=C1,51953-17-4,-,30,4(3h)-pyrimidone,A171,10850781,-,-,0.59,log(mol/L),-0.59,-log(M),Train,,-,,-,,,,-
CCC=O,123-38-6,-,31,propanal,A171,10850781,-,-,0.58,log(mol/L),-0.58,-log(M),Train,,-,,-,,,,-
C(=O)OC,107-31-3,-,32,methyl formate,A171,10850781,-,-,0.58,log(mol/L),-0.58,-log(M),Train,,-,,-,,,,-
C=CC=O,107-02-8,-,33,acrolein,A171,10850781,-,-,0.57,log(mol/L),-0.57,-log(M),Train,,-,,-,,,,-
C1CCOC1,109-99-9,-,34,tetrahydrofuran,A171,10850781,-,-,0.56,log(mol/L),-0.56,-log(M),Train,,-,,-,,,,-
CC(=O)CC,78-93-3,-,35,2-butanone,A171,10850781,-,-,0.52,log(mol/L),-0.52,-log(M),Train,,-,,-,,,,-
CC1NCC(C)NC1,106-55-8,-,36,"2,5-dimethylpiperazine",A171,10850781,-,-,0.49,log(mol/L),-0.49,-log(M),Train,,-,,-,,,,-
COCOC,109-87-5,-,37,dimethoxymethane,A171,10850781,-,-,0.48,log(mol/L),-0.48,-log(M),Train,,-,,-,,,,-
CC1=NC(C)=CC=C1,108-48-5,-,38,"2,6-dimethylpyridine",A171,10850781,-,-,0.45,log(mol/L),-0.45,-log(M),Train,,-,,-,,,,-
CC1=CC=C(C)N=C1,589-93-5,-,39,"2,5-dimethylpyridine",A171,10850781,-,-,0.4,log(mol/L),-0.4,-log(M),Train,,-,,-,,,,-
O1C(O)C(O)C(O)C(O)C1,87-72-9,-,40,l-arabinose,A171,10850781,-,,0.39,log(mol/L),-0.39,-log(M),Train,,-,,-,,,,-
CC1=CC(C)=NC=C1,108-47-4,-,41,"2,4-dimethylpyridine",A171,10850781,-,-,0.38,log(mol/L),-0.38,-log(M),Train,,-,,-,,,,-
CC1=CC=CN=C1C,583-61-9,-,42,"2,3-dimethylpyridine",A171,10850781,-,-,0.38,log(mol/L),-0.38,-log(M),Train,,-,,-,,,,-
O=C1N2CC3CNCC(C3)C2=CC=C1,485-35-8,-,43,cytisine,A171,10850781,-,-,0.36,log(mol/L),-0.36,-log(M),Train,,-,,-,,,,-
OC1C(O)C(O)C(O)C(O)C1O,643-12-9,-,44,-,A171,10850781,-,,0.35,log(mol/L),-0.35,-log(M),Train,,-,,-,,,,-
CC=CC=O,4170-30-3,-,45,2-butenal,A171,10850781,-,-,0.32,log(mol/L),-0.32,-log(M),Train,,-,,-,,,,-
CCC(C(O)=O)N,80-60-4,-,46,alpha-aminobutyric acid,A171,10850781,-,-,0.31,log(mol/L),-0.31,-log(M),Train,,-,,-,,,,-
O=C1CCC(N1)=O,123-56-8,-,47,succinimide,A171,10850781,-,-,0.3,log(mol/L),-0.3,-log(M),Train,,-,,-,,,,-
CC(C)C(O)=O,79-31-2,-,48,isobutyric acid,A171,10850781,-,-,0.28,log(mol/L),-0.28,-log(M),Train,,-,,-,,,,-
CN1CCCCC1,626-67-5,-,49,n-methylpiperidine,A171,10850781,-,-,0.23,log(mol/L),-0.23,-log(M),Train,,-,,-,,,,-
CC(CC(C)=O)=O,123-54-6,-,50,"2,4-pentanedione",A171,10850781,-,-,0.22,log(mol/L),-0.22,-log(M),Train,,-,,-,,,,-
C(OCC)=O,109-94-4,-,51,Ethyl formate,A171,10850781,-,-,0.15,log(mol/L),-0.15,-log(M),Train,,-,,-,,,,-
C=CC#N,107-13-1,-,52,acrylonitrile,A171,10850781,-,-,0.15,log(mol/L),-0.15,-log(M),Train,,-,,-,,,,-
CC1CCCO1,96-47-9,-,53,2-methyltetrahydrofuran,A171,10850781,-,-,0.11,log(mol/L),-0.11,-log(M),Train,,-,,-,,,,-
CC(C)(C)OC(N)=O,4248-19-5,-,54,o-t-butyl carbamate,A171,10850781,-,-,0.1,log(mol/L),-0.1,-log(M),Train,,-,,-,,,,-
CCC(C)(O)C,75-85-4,-,55,2-ethyl-2-propanol,A171,10850781,-,-,0.08,log(mol/L),-0.08,-log(M),Train,,-,,-,,,,-
NNC1=CC=CC=C1,100-63-0,-,56,phenyl hydrazine,A171,10850781,-,-,0.07,log(mol/L),-0.07,-log(M),Train,,-,,-,,,,-
CC(C)CO,78-83-1,-,57,2-methylpropanol,A171,10850781,-,-,0.04,log(mol/L),-0.04,-log(M),Train,,-,,-,,,,-
O=S(CC)(CC)=O,597-35-3,-,58,diethyl sulfone,A171,10850781,-,-,0.04,log(mol/L),-0.04,-log(M),Train,,-,,-,,,,-
C=12N=CC=NC1N=CN=C2,91-18-9,-,59,pteridine,A171,10850781,-,-,0.02,log(mol/L),-0.02,-log(M),Train,,-,,-,,,,-
O=C(C1=CC=NC=C1)NN,54-85-3,-,60,isoniazid,A171,10850781,-,-,0.01,log(mol/L),-0.01,-log(M),Train,,-,,-,,,,-
OC1=CC=CC=C1,108-95-2,-,61,Phenol,A171,10850781,-,-,0.0,log(mol/L),0.0,-log(M),Train,,-,,-,,,,-
CCCC=O,123-72-8,-,62,butanal,A171,10850781,-,-,-0.01,log(mol/L),0.01,-log(M),Train,,-,,-,,,,-
CN1C2CCC1C(C(O)=O)C(O)C2,481-37-8,-,63,ecgonine,A171,10850781,-,-,-0.02,log(mol/L),0.02,-log(M),Train,,-,,-,,,,-
C1CCOCC1,142-68-7,-,64,tetrahydropyran,A171,10850781,-,-,-0.03,log(mol/L),0.03,-log(M),Train,,-,,-,,,,-
CCC1NC(=O)NC1=O,-,-,65,5-ethylhydantoin,A171,10850781,-,-,-0.06,log(mol/L),0.06,-log(M),Train,,-,,-,,,,-
O=C1NOC(=C1)C,10004-44-1,-,66,3-hydroxy-5-methylisoxazole,A171,10850781,-,-,-0.07,log(mol/L),0.07,-log(M),Train,,-,,-,,,,-
NC(C(O)=O)C(O)C,72-19-5,-,67,threonine,A171,10850781,-,-,-0.09,log(mol/L),0.09,-log(M),Train,,-,,-,,,,-
CCOCC,60-29-7,-,68,Diethyl ether,A171,10850781,-,-,-0.09,log(mol/L),0.09,-log(M),Train,,-,,-,,,,-
C(C1=CC=CO1)=O,98-01-1,-,69,furfural,A171,10850781,-,-,-0.1,log(mol/L),0.1,-log(M),Train,,-,,-,,,,-
CC1=NC=NC=2N=CC=NC12,-,-,70,2-methylpteridine,A171,10850781,-,-,-0.12,log(mol/L),0.12,-log(M),Train,,-,,-,,,,-
NC(C(O)=O)C(C)(S)C,52-67-5,-,71,pencillamine,A171,10850781,-,-,-0.13,log(mol/L),0.13,-log(M),Train,,-,,-,,,,-
CCN(CC)CC,121-44-8,-,72,triethylamine,A171,10850781,-,-,-0.14,log(mol/L),0.14,-log(M),Train,,-,,-,,,,-
N1C=CC=C1,109-97-7,-,73,pyrrole,A171,10850781,-,,-0.17,log(mol/L),0.17,-log(M),Train,,-,,-,,,,-
OC1C(O)C(O)C(O)C(O)C1,488-73-3,-,74,d-quercitol,A171,10850781,-,-,-0.17,log(mol/L),0.17,-log(M),Train,,-,,-,,,,-
OC(CO)CN1C=NC2=C1C(N(C)C(N2C)=O)=O,479-18-5,-,75,dyphylline,A171,10850781,-,-,-0.17,log(mol/L),0.17,-log(M),Train,,-,,-,,,,-
O=NN1CCCCC1,100-75-4,-,76,n-nitrosopiperidine,A171,10850781,-,-,-0.17,log(mol/L),0.17,-log(M),Train,,-,,-,,,,-
CC(CCC)=O,107-87-9,-,77,2-pentanone,A171,10850781,-,-,-0.19,log(mol/L),0.19,-log(M),Train,,-,,-,,,,-
OC(CCC)=O,107-92-6,-,78,butyric acid,A171,10850781,-,-,-0.19,log(mol/L),0.19,-log(M),Train,,-,,-,,,,-
CN(NC(CCC(O)=O)=O)C,1596-84-5,-,79,daminozide,A171,10850781,-,-,-0.2,log(mol/L),0.2,-log(M),Train,,-,,-,,,,-
OC(CCC(O)=O)=O,110-15-6,-,80,succinic acid,A171,10850781,-,-,-0.2,log(mol/L),0.2,-log(M),Train,,-,,-,,,,-
CC(C)C(O)C,598-75-4,-,81,3-methyl-2-butanol,A171,10850781,-,-,-0.2,log(mol/L),0.2,-log(M),Train,,-,,-,,,,-
O=C(OC)C=C,96-33-3,-,82,methyl acrylate,A171,10850781,-,-,-0.22,log(mol/L),0.22,-log(M),Train,,-,,-,,,,-
CCC(O)CC,584-02-1,-,83,3-pentanol,A171,10850781,-,-,-0.24,log(mol/L),0.24,-log(M),Train,,-,,-,,,,-
O=C(C1C2OC(CC2)C1C(O)=O)O,145-73-3,-,84,endothall,A171,10850781,-,-,-0.27,log(mol/L),0.27,-log(M),Train,,-,,-,,,,-
CC(O)CCC,6032-29-7,-,85,2-pentanol,A171,10850781,-,-,-0.29,log(mol/L),0.29,-log(M),Train,,-,,-,,,,-
OC(=O)CC(C)(C(=O)O)C(C)(C)C(=O)O,2385-74-2,-,86,l-camphoronic acid,A171,10850781,-,-,-0.29,log(mol/L),0.29,-log(M),Train,,-,,-,,,,-
ClCCC#N,542-76-7,-,87,3-chloropropionitrile,A171,10850781,-,-,-0.29,log(mol/L),0.29,-log(M),Train,,-,,-,,,,-
OC1=C(CO)C=CC=C1,90-01-7,-,88,salicyl alcohol,A171,10850781,-,-,-0.29,log(mol/L),0.29,-log(M),Train,,-,,-,,,,-
NC(OCC(C)C)=O,2114-15-0,-,89,o-isobutyl carbamate,A171,10850781,-,-,-0.3,log(mol/L),0.3,-log(M),Train,,-,,-,,,,-
N=C(N)NC#N,461-58-5,-,90,2-cyanoguanidine,A171,10850781,-,-,-0.31,log(mol/L),0.31,-log(M),Train,,-,,-,,,,-
CC(CC)(O)CC,77-74-7,-,91,3-methyl-3-pentanol,A171,10850781,-,-,-0.38,log(mol/L),0.38,-log(M),Train,,-,,-,,,,-
NC1=CC=C(N)C=C1,106-50-3,-,92,"1,4-benzenediamine",A171,10850781,-,-,-0.38,log(mol/L),0.38,-log(M),Train,,-,,-,,,,-
COCCC,557-17-5,-,93,methyl propyl ether,A171,10850781,-,-,-0.39,log(mol/L),0.39,-log(M),Train,,-,,-,,,,-
OCC(C)C(C)C,19550-30-2,-,94,"2,3-dimethylbutanol",A171,10850781,-,-,-0.39,log(mol/L),0.39,-log(M),Train,,-,,-,,,,-
OCC1=CC=CC=C1,100-51-6,-,95,phenylmethanol,A171,10850781,-,-,-0.4,log(mol/L),0.4,-log(M),Train,,-,,-,,,,-
OC(C(N)CCSC)=O,63-68-3,-,96,methionine,A171,10850781,-,-,-0.42,log(mol/L),0.42,-log(M),Train,,-,,-,,,,-
NC1=CC=CC=C1N,95-54-5,-,97,"1,2-benzenediamine",A171,10850781,-,-,-0.42,log(mol/L),0.42,-log(M),Train,,-,,-,,,,-
OC(C(C)NC)C1=CC=CC=C1,299-42-3,-,98,Ephedrine,A171,10850781,-,-,-0.42,log(mol/L),0.42,-log(M),Train,,-,,-,,,,-
OC1CCCCC1,108-93-0,-,99,cyclohexanol,A171,10850781,-,-,-0.44,log(mol/L),0.44,-log(M),Train,,-,,-,,,,-
N1CCCCC1CC(=O)C,-,-,100,pelletierine,A171,10850781,-,-,-0.45,log(mol/L),0.45,-log(M),Train,,-,,-,,,,-
O=C1CC2OCC=C3C4CC5C6(C(N1C7=C6C=CC=C7)C24)CCN5C3,57-24-9,-,588,strychnine,A171,10850781,-,-,-3.32,log(mol/L),3.32,-log(M),Train,,-,,-,,,,-
C1(N=NC2=CC=CC=C2)=CC=CC=C1,103-33-3,-,728,azobenzene,A171,10850781,-,,-4.45,log(mol/L),4.45,-log(M),Train,,-,,-,,,,-
C=12C=CC3=C(C1NC=4C=5C=CC=CC5C=CC24)C=CC=C3,239-64-5,-,862,"13h-dibenzo(a,i)carbazole",A171,10850781,-,-,-7.42,log(mol/L),7.42,-log(M),Train,,-,,-,,,,-
CNC1=CC=CC=C1C(O)=O,119-68-6,-,1124,n-methylanthranilic acid,A171,10850781,-,,-2.88,log(mol/L),2.88,-log(M),Test 1,,-,,-,,,,-
O=C(O)COC1=CC(Cl)=C(Cl)C=C1Cl,93-76-5,-,1127,"2,4,5-t",A171,10850781,-,-,-2.96,log(mol/L),2.96,-log(M),Test 1,,-,,-,,,,-
C12=C(C=CC3=C1C=CC4=C3C=CC=C4)C=CC=C2,218-01-9,-,1287,Chrysene,A171,10850781,-,,-8.06,log(mol/L),8.06,-log(M),Test 1,,-,,-,,,,-
O=C1NC(CN1N=CC2=CC=C(N(=O)=O)O2)=O,67-20-9,-,1306,nitrofurantoin,A171,10850781,-,,-3.38,log(mol/L),3.38,-log(M),Test 2,,-,,-,,,,-
CCOP(=S)(OCC)OC1=CC=C(C=C1)N(=O)=O,56-38-2,-,1311,parathion,A171,10850781,-,,-4.66,log(mol/L),4.66,-log(M),Test 2,,-,,-,,,,-
C1=CC=C(C=C1)N=C=S,103-72-0,-,-,Phenyl isothiocyanate,A1990,16328896,184,I,0.66,mmol/L,3.18,-log(M),,,-,,-,,,,-
C=1C=2C(N=C=S)=CC=CC2C=CC1,551-06-4,-,,Naphthyl isothiocyanate,A1990,16328896,184,I,0.025,mmol/L,4.602,-log(M),,,-,,-,,,,-
C1=CC=CC=C1CN=C=S,622-78-6,-,-,benzyl isothiocyanate,A1990,16328896,184,I,0.73,mmol/L,3.137,-log(M),,,-,,-,,,,-
BrC1=CC=C(OC2=CC=C(Br)C=C2)C=C1,2050-47-7,-,2,"4,4'-Dibromodiphenyl ether; BDE-015",A1613,12206419,1805,2,1.3E-4 +- 2.0E-5,g/L,6.402,-log(M),,25.0,?C,,-,,,,-
BrC1=CC=C(OC2=CC=C(Br)C=C2)C=C1,2050-47-7,-,1,"4,4'-Dibromodiphenyl ether; BDE-015",A1615,17215027,1861,1,6.57E-7,mol/L,6.182,-log(M),,25.0,?C,,-,,,,-
BrC1=CC=C(OC2=CC=C(Br)C=C2)C=C1,2050-47-7,-,1,"4,4'-Dibromodiphenyl ether; BDE-015",A2002,12785581,1254,1,0.00241,mmol/L,5.618,-log(M),,25.0,?C,,-,,,,-
BrC1=CC(Br)=CC=C1OC2=CC=C(Br)C=C2,41318-75-6,-,3,"BDE-028; 2,4,4'-tribromodiphenyl ether",A1613,12206419,1805,2,7.0E-5 +- 1.0E-5,g/L,6.764,-log(M),,25.0,?C,,-,uncertain CASRN,,,-
BrC1=CC(Br)=CC=C1OC2=CC=C(Br)C=C2,41318-75-6,-,2,"BDE-028; 2,4,4'-tribromodiphenyl ether",A2002,12785581,1254,1,8.21E-4,mmol/L,6.086,-log(M),,25.0,?C,,-,uncertain CASRN,,,-
C1=CC(=C(C=C1Br)Br)OC2=C(C=C(C=C2)Br)Br,5436-43-1,-,9,"2,2',4,4'-Tetrabromodiphenyl ether; BDE-047",A1609,11916035,197,1,0.0109,mg/L,7.649,-log(M),,,-,,-,,,,-
C1=CC(=C(C=C1Br)Br)OC2=C(C=C(C=C2)Br)Br,5436-43-1,-,9,"2,2',4,4'-Tetrabromodiphenyl ether; BDE-047",A1609,11916035,197,1,0.0153,mg/L,7.502,-log(M),,,-,,-,,,,-
C1=CC(=C(C=C1Br)Br)OC2=C(C=C(C=C2)Br)Br,5436-43-1,-,4,"2,2',4,4'-Tetrabromodiphenyl ether; BDE-047",A1613,12206419,1805,2,1.5E-5 +- 2.0E-6,g/L,7.51,-log(M),,25.0,?C,,-,,,,-
C1=CC(=C(C=C1Br)Br)OC2=C(C=C(C=C2)Br)Br,5436-43-1,-,2,"2,2',4,4'-Tetrabromodiphenyl ether; BDE-047",A1615,17215027,1861,1,3.04E-8,mol/L,7.517,-log(M),,25.0,?C,,-,,,,-
C1=CC(=C(C=C1Br)Br)OC2=C(C=C(C=C2)Br)Br,5436-43-1,-,3,"2,2',4,4'-Tetrabromodiphenyl ether; BDE-047",A2002,12785581,1254,1,1.95E-4,mmol/L,6.71,-log(M),,25.0,?C,,-,,,,-
BrC1=CC=C(OC2=CC=C(Br)C=C2Br)C=C1Br,189084-61-5,-,5,"BDE-066; 2,3',4,4'-tetrabromodiphenyl ether",A1613,12206419,1805,2,1.8E-5 +- 3.0E-6,g/L,7.431,-log(M),,25.0,?C,,-,uncertain CASRN,,,-
BrC1=CC=C(OC2=CC=C(Br)C(Br)=C2)C=C1Br,93703-48-1,-,6,"BDE-077; 3,3',4,4'-tetrabromodiphenyl ether",A1613,12206419,1805,2,6.0E-6 +- 1.0E-7,g/L,7.908,-log(M),,25.0,?C,,-,uncertain CASRN,,,-
C1=CC(=C(C=C1Br)Br)OC2=C(C(=C(C=C2)Br)Br)Br,182346-21-0,-,10,"2,2',3,4,4'-Pentabromodiphenyl ether; BDE-085",A1609,11916035,197,1,9.0E-7,mg/L,11.8,-log(M),,,-,,-,,,,-
C1=CC(=C(C=C1Br)Br)OC2=C(C(=C(C=C2)Br)Br)Br,182346-21-0,-,7,"2,2',3,4,4'-Pentabromodiphenyl ether; BDE-085",A1613,12206419,1805,2,6.0E-6 +- 1.0E-7,g/L,7.974,-log(M),,25.0,?C,,-,,,,-
C1=CC(=C(C=C1Br)Br)OC2=CC(=C(C=C2Br)Br)Br,60348-60-9,-,11,"2,2',4,4',5-Pentabromodiphenyl ether; BDE-099",A1609,11916035,197,1,0.0024,mg/L,8.372,-log(M),,,-,,-,,,,-
C1=CC(=C(C=C1Br)Br)OC2=CC(=C(C=C2Br)Br)Br,60348-60-9,-,11,"2,2',4,4',5-Pentabromodiphenyl ether; BDE-099",A1609,11916035,197,1,9.0E-7,mg/L,11.8,-log(M),,,-,,-,,,,-
C1=CC(=C(C=C1Br)Br)OC2=CC(=C(C=C2Br)Br)Br,60348-60-9,-,8,"2,2',4,4',5-Pentabromodiphenyl ether; BDE-099",A1613,12206419,1805,2,9.4E-6 +- 8.0E-7,g/L,7.779,-log(M),,25.0,?C,,-,,,,-
C1=CC(=C(C=C1Br)Br)OC2=CC(=C(C=C2Br)Br)Br,60348-60-9,-,3,"2,2',4,4',5-Pentabromodiphenyl ether; BDE-099",A1615,17215027,1861,1,7.74E-9,mol/L,8.111,-log(M),,25.0,?C,,-,,,,-
C1=CC(=C(C=C1Br)Br)OC2=CC(=C(C=C2Br)Br)Br,60348-60-9,-,4,"2,2',4,4',5-Pentabromodiphenyl ether; BDE-099",A2002,12785581,1254,1,6.88E-5,mmol/L,7.162,-log(M),,25.0,?C,,-,,,,-
C1=CC(=C(C=C1Br)Br)OC2=C(C=C(C=C2Br)Br)Br,189084-64-8,-,9,"BDE-100; 2,2',4,4',6-pentabromodiphenyl ether",A1613,12206419,1805,2,4.0E-5 +- 1.0E-5,g/L,7.15,-log(M),,25.0,?C,,-,,,,-
C1=CC(=C(C=C1Br)Br)OC2=C(C=C(C=C2Br)Br)Br,189084-64-8,-,5,"BDE-100; 2,2',4,4',6-pentabromodiphenyl ether",A2002,12785581,1254,1,9.58E-5,mmol/L,7.019,-log(M),,25.0,?C,,-,,,,-
BrC1=C(OC2=CC=CC=C2)C(Br)=C(Br)C(Br)=C1Br,-,-,12,"BDE-116; 2,3,4,5,6-pentabromodiphenyl ether",A1609,11916035,197,1,9.0E-7,mg/L,11.8,-log(M),,,-,,-,uncertain CASRN,,,-
BrC1=CC=C(OC2=C(Br)C=C(Br)C=C2Br)C=C1Br,189084-66-0,-,13,"BDE-119; 2,3',4,4',6-pentabromodiphenyl ether",A1609,11916035,197,1,9.0E-7,mg/L,11.8,-log(M),,,-,,-,uncertain CASRN,,,-
C1=C(C(=CC(=C1Br)Br)Br)OC2=CC(=C(C=C2Br)Br)Br,68631-49-2,-,10,"BDE-153; 2,2',4,4',5,5'-Hexabromodiphenyl ether",A1613,12206419,1805,2,8.7E-7 +- 6.0E-8,g/L,8.869,-log(M),,25.0,?C,,-,,,,-
C1=C(C(=CC(=C1Br)Br)Br)OC2=CC(=C(C=C2Br)Br)Br,68631-49-2,-,4,"BDE-153; 2,2',4,4',5,5'-Hexabromodiphenyl ether",A1615,17215027,1861,1,5.04E-5 +- 2.7E-6,mg/L,10.11,-log(M),,25.0,?C,,-,,,,-
C1=C(C(=CC(=C1Br)Br)Br)OC2=CC(=C(C=C2Br)Br)Br,68631-49-2,-,6,"BDE-153; 2,2',4,4',5,5'-Hexabromodiphenyl ether",A2002,12785581,1254,1,2.59E-5,mmol/L,7.587,-log(M),,25.0,?C,,-,,,,-
BrC1=CC(OC2=C(Br)C=C(Br)C=C2Br)=C(Br)C=C1Br,207122-15-4,-,11,"BDE-154; 2,2',4,4',5,6'-hexabromodiphenyl ether",A1613,12206419,1805,2,8.7E-7 +- 9.0E-8,g/L,8.869,-log(M),,25.0,?C,,-,uncertain CASRN,,,-
BrC1=C(OC2=CC(Br)=C(Br)C=C2Br)C(Br)=C(Br)C(Br)=C1,207122-16-5,-,12,"BDE-183; 2,2',3,4,4',5',6-heptabromodiphenyl ether",A1613,12206419,1805,2,1.5E-6 +- 3.0E-7,g/L,8.683,-log(M),,25.0,?C,,-,uncertain CASRN,,,-
C1(=C(C(=C(C(=C1Br)Br)Br)Br)Br)Br,87-82-1,-,1,HBB; hexabromobenzene,A1613,12206419,1805,2,3.0E-6 +- 5.0E-7,g/L,8.264,-log(M),,25.0,?C,,-,,,,-
O=C(C1=C(C=C2C(C(CC(C)C2(C)C)(C)C)=C1)C)C,1506-02-1,-,-,"FRA-002; AHTN(tonalide,tetralide,fixolide)",A2015,-,960,1,1.25,mg/L,5.315,-log(M),,,-,,-,,RIVM,,-
O=C(C(=CC1C(=CCCC1(C)C)C)C)C,127-51-5,-,-,FRA-021; g-methyl ionone,A2015,-,960,1,9.0,mg/L,4.36,-log(M),,,-,,-,,RIFM,,-
O1CC(C2=C(C=C3C(C(C(C)C3(C)C)(C)C)=C2)C1)C,1222-05-5,-,-,FRA-024; HHCB (Galaxolide),A2015,-,960,1,1.75,mg/L,5.169,-log(M),,,-,,-,,RIVM,,-
O=C(C1=C(C(N(=O)=O)=C(C(N(=O)=O)=C1C)C(C)(C)C)C)C,81-14-1,-,-,FRA-043; Musk ketone,A2020,9415982,2978,1,1.9,mg/L,5.19,-log(M),,,-,,-,,,,-
O=C(C1=C(C(N(=O)=O)=C(C(N(=O)=O)=C1C)C(C)(C)C)C)C,81-14-1,-,-,FRA-043; Musk ketone,A2015,-,960,1,1.9,mg/L,5.19,-log(M),,,-,,-,,,,-
N(=O)(=O)C1=C(C(N(=O)=O)=C(C(N(=O)=O)=C1C)C(C)(C)C)C,81-15-2,-,-,FRA-044; Musk xylene,A2020,9415982,2978,1,0.49,mg/L,5.783,-log(M),,,-,,-,,,,-
N(=O)(=O)C1=C(C(N(=O)=O)=C(C(N(=O)=O)=C1C)C(C)(C)C)C,81-15-2,-,-,FRA-044; Musk xylene,A2015,-,960,1,0.49,mg/L,5.783,-log(M),,,-,,-,,,,-
O=C(C1(C(CC2=C(C(CCC2)(C)C)C1)C)C)C,54464-57-2,-,,FRA-045; OTNE,A2015,-,960,1,2.68,mg/L,4.942,-log(M),,,-,,-,,RIFM,,-
O=CC(C)CC1=CC=C(C=C1)C(C)(C)C,80-54-6,-,,FRA-048; p-t-bucinal,A2015,-,960,1,33.0,mg/L,3.792,-log(M),,,-,,-,,RIFM,,-
N(=O)(=O)C1=C(C(N(=O)=O)=C(OC)C(C(C)(C)C)=C1)C,83-66-9,-,,MUSK AMBRETTE; FRA056,A2017,-,2249,1,0.79,mg/L,5.531,-log(M),,,-,,-,,,,-
N(=O)(=O)C1=C(C(N(=O)=O)=C2C(C(CC2(C)C)(C)C)=C1)C,116-66-5,-,,FRA057; Musk moskene,A2017,-,2249,1,0.046,mg/L,6.782,-log(M),,,-,,-,,,,-
N(=O)(=O)C1=C(C(N(=O)=O)=C(C(C)=C1C)C)C(C)(C)C,145-39-1,-,,FRA058; Musk tibetene,A2017,-,2249,1,0.052,mg/L,6.709,-log(M),,,-,,-,,,,-
C1=CC(Cl)=CC=C1OC(N2N=CN=C2)C(O)C(C)(C)C,55219-65-3,-,,TRIADIMENOL,A2260,-,-,,0.062,g/L,3.679,-log(M),,20.0,?C,,-,,,,-
C1=CC(F)=CC=C1C2(CN3N=CN=C3)OC2C4=CC=CC=C4Cl,106325-08-0,-,-,Epoxiconazole,A2059,-,11,B.2.1.,7.1,mg/L,4.667,-log(M),,20.0,?C,,-,,,,-
C1=CC(F)=CC=C1[Si](C)(C2=CC=C(F)C=C2)CN3N=CN=C3,85509-19-9,-,-,Flusilazole,A2106,-,8,-,41.9,mg/L,3.877,-log(M),,,-,20.0,mol/L,,,,-
C1=NC=NN1C(C(O)C(C)(C)C)CC2=CC=C(Cl)C=C2,76738-62-0,-,-,Paclobutrazol,A2073,-,10,B.2.1.,22.9,mg/L,4.108,-log(M),,,-,,-,,,,-
ClC1=CC(Cl)=CC=C1C2(CN3N=CN=C3)OC(CCC)CO2,60207-90-1,-,-,Propiconazole,A2107,-,2,-,150.0,mg/L,3.358,-log(M),,20.0,?C,,-,,,,-
C1=CC(Cl)=CC=C1OC(N2N=CN=C2)C(O)C(C)(C)C,55219-65-3,-,-,TRIADIMENOL,A2075,-,11,B.2.1.,49.0,mg/L,3.781,-log(M),,20.0,?C,,-,,,,-
C1=CC(Cl)=CC=C1OC(N2N=CN=C2)C(O)C(C)(C)C,55219-65-3,-,-,TRIADIMENOL,A2075,-,11,B.2.1.,95.0,mg/L,3.493,-log(M),,20.0,?C,,-,,,,-
C1=CC(Cl)=CC=C1C(O)(C(C)C2CC2)CN3N=CN=C3,94361-06-5,-,-,Cyproconazole,A2330,-,-,-,140.0,mg/L,3.319,-log(M),,25.0,?C,,-,,,,-
C1=CC(F)=CC=C1C2(CN3N=CN=C3)OC2C4=CC=CC=C4Cl,106325-08-0,-,-,Epoxiconazole,A2330,-,-,-,6.63,mg/L,4.697,-log(M),,20.0,?C,,-,,,,-
C1=CC(F)=CC=C1[Si](C)(C2=CC=C(F)C=C2)CN3N=CN=C3,85509-19-9,-,-,Flusilazole,A2330,-,-,-,54.0,mg/L,3.766,-log(M),,20.0,Log unit,,-,,,7.2,Log unit
C1=NC=NN1C(C(O)C(C)(C)C)CC2=CC=C(Cl)C=C2,76738-62-0,-,-,Paclobutrazol,A2330,-,-,-,26.0,mg/L,4.053,-log(M),,20.0,?C,,-,,,,-
ClC1=CC(Cl)=CC=C1C2(CN3N=CN=C3)OC(CCC)CO2,60207-90-1,-,-,Propiconazole,A2330,-,-,-,110.0,mg/L,3.493,-log(M),,20.0,?C,,-,,,,-
C1=CC(Cl)=CC=C1CCC(O)(C(C)(C)C)CN2N=CN=C2,107534-96-3,-,-,Tebuconazole,A2330,-,-,-,36.0,mg/L,3.932,-log(M),,20.0,?C,,-,,,,-
C1=CC(Cl)=CC=C1OC(N2N=CN=C2)C(O)C(C)(C)C,55219-65-3,-,-,TRIADIMENOL,A2330,-,-,-,120.0,mg/L,3.392,-log(M),,20.0,?C,,-,,,,-
C12=CC=CC=C1NN=N2,95-14-7,-,,1H-Benzotriazole,A2539,-,-,,19800.0,mg/L,0.7793,-log(M),,25.0,?C,,-,,,,-
FC(F)C,75-37-6,-,-,"1,1-Difluoroethane",A2330,-,-,-,3200.0,mg/L,1.315,-log(M),,21.0,?C,,-,,,,-
FC(F)(F)Br,75-63-8,-,-,Bromotrifluoromethane,A2330,-,-,-,320.0,mg/L,2.668,-log(M),,25.0,?C,,-,,,,-