SMILES,CASRN,EXTERNALID,N,NAME,ARTICLEID,PUBMEDID,PAGE,TABLE,Solubility_log(mol/L),UNIT {Water solubility},"Water solubility {measured, converted}",UNIT {Water solubility}.1,Dataset,Temperature,UNIT {Temperature},Ionic strength,UNIT {Ionic strength},comment (chemical),source,pH,UNIT {pH}
NC1=CC(=NC(N)=N1=O)N2CCCCC2,-,-,843,Minoxidil,A170,15154768,-,-,-1.989,log(mol/L),1.989,-log(M),,,-,,-,,,,-
ClC12C3(Cl)C4(Cl)C5(Cl)C(Cl)(C1(Cl)C4(Cl)Cl)C2(Cl)C(Cl)(Cl)C35Cl,-,-,844,Mirex,A170,15154768,-,-,-6.8,log(mol/L),6.8,-log(M),,,-,,-,,,,-
CC1=CC=CC(N)=C1,-,-,845,m-Methylaniline,A170,15154768,-,-,-0.85,log(mol/L),0.85,-log(M),,,-,,-,,,,-
NC1=CC=CC(N(=O)=O)=C1,-,-,846,m-Nitroaniline,A170,15154768,-,-,-2.19,log(mol/L),2.19,-log(M),,,-,,-,,,,-
OC1=CC=CC(N(=O)=O)=C1,-,-,847,m-Nitrophenol,A170,15154768,-,-,-1.01,log(mol/L),1.01,-log(M),,,-,,-,,,,-
CC1=CC=CC(=C1)N(=O)=O,-,-,848,m-Nitrotoluene,A170,15154768,-,-,-2.44,log(mol/L),2.44,-log(M),,,-,,-,,,,-
CON(C)C(=O)NC1=CC=C(Cl)C=C1,-,-,849,monolinuron,A170,15154768,-,-,-2.57,log(mol/L),2.57,-log(M),,,-,,-,,,,-
COC(=O)C1=CC=CC=C1OC2OC(COC3OCC(O)C(O)C3O)C(O)C(O)C2O,-,-,850,Monotropitoside,A170,15154768,-,-,-0.742,log(mol/L),0.742,-log(M),,,-,,-,,,,-
CN(C)C(=O)NC1=CC=C(Cl)C=C1,-,-,851,monuron,A170,15154768,-,-,-2.89,log(mol/L),2.89,-log(M),,,-,,-,,,,-
OC1=CC=C(C(O)=C1)C=2OC=3C=C(O)C=C(O)C3C(=O)C2O,-,-,852,morin,A170,15154768,-,-,-3.083,log(mol/L),3.083,-log(M),,,-,,-,,,,-
CC1=CC=CC(C)=C1,-,-,853,m-xylene,A170,15154768,-,-,-2.82,log(mol/L),2.82,-log(M),,,-,,-,,,,-
CCN(CC)C1=CC=CC=C1,-,-,854,"n,n-diethylaniline",A170,15154768,-,-,-3.03,log(mol/L),3.03,-log(M),,,-,,-,,,,-
CN(C)C(=O)C,-,-,855,"n,n-dimethylacetamide",A170,15154768,-,-,1.11,log(mol/L),-1.11,-log(M),,,-,,-,,,,-
CN(C)C1=CC=CC=C1,-,-,856,"n,n-dimethylaniline",A170,15154768,-,-,-1.92,log(mol/L),1.92,-log(M),,,-,,-,,,,-
COP(=O)(OC)OC(Br)C(Cl)(Cl)Br,-,-,857,Naled,A170,15154768,-,-,-2.28,log(mol/L),2.28,-log(M),,,-,,-,,,,-
CCN(CC)C(=O)C(C)OC1=CC=CC=2C=CC=CC12,-,-,858,napropamide,A170,15154768,-,-,-3.57,log(mol/L),3.57,-log(M),,,-,,-,,,,-
C1=CC=C2C=C3C=C4C=CC=CC4=CC3=CC2=C1,-,-,859,Napthacene,A170,15154768,-,-,-8.6,log(mol/L),8.6,-log(M),,,-,,-,,,,-
C1=CC=C2C=CC=CC2=C1,-,-,860,Napthalene,A170,15154768,-,-,-3.6,log(mol/L),3.6,-log(M),,,-,,-,,,,-
CCCCN(C)C(=O)NC1=CC=C(Cl)C(Cl)=C1,-,-,861,neburon,A170,15154768,-,-,-4.77,log(mol/L),4.77,-log(M),,,-,,-,,,,-
CC(C)=CCCC(C)=CCO,-,-,862,Nerol,A170,15154768,-,-,-2.46,log(mol/L),2.46,-log(M),,,-,,-,,,,-
CCNC1=CC=CC=C1,-,-,863,n-ethylaniline,A170,15154768,-,-,-1.7,log(mol/L),1.7,-log(M),,,-,,-,,,,-
CC1=CC=NC=2N(C3CC3)C4=NC=CC=C4C(=O)NC12,-,-,864,Nevirapine,A170,15154768,-,-,-3.19,log(mol/L),3.19,-log(M),,,-,,-,,,,-
OC1=CC=C(Cl)C=C1C(=O)NC2=CC=C(C=C2Cl)N(=O)=O,-,-,865,niclosamide,A170,15154768,-,-,-4.7,log(mol/L),4.7,-log(M),,,-,,-,,,,-
NC(C1=CC=CN=C1)=O,-,-,866,nicotinamide,A170,15154768,-,-,0.61,log(mol/L),-0.61,-log(M),,,-,,-,,,,-
COC(=O)C1=C(C)NC(=C(C1C2=CC=CC=C2N(=O)=O)C(=O)OC)C,-,-,867,Nifedipine,A170,15154768,-,-,-4.76,log(mol/L),4.76,-log(M),,,-,,-,,,,-
ON=CC1=CC=C(O1)N(=O)=O,-,-,868,Nifuroxime,A170,15154768,-,-,-2.19,log(mol/L),2.19,-log(M),,,-,,-,,,,-
CN1C(=O)CN=C(C2=CC=CC=C2)C3=CC(=CC=C13)N(=O)=O,-,-,869,nimetazepam,A170,15154768,-,-,-3.796,log(mol/L),3.796,-log(M),,,-,,-,,,,-
O=C1NCCN1C2=NC=C(S2)N(=O)=O,-,-,870,niridazole,A170,15154768,-,-,-3.22,log(mol/L),3.22,-log(M),,,-,,-,,,,-
CCN(CC)C1=C(C=C(C(N)=C1N(=O)=O)C(F)(F)F)N(=O)=O,-,-,871,Nitramine,A170,15154768,-,-,-3.561,log(mol/L),3.561,-log(M),,,-,,-,,,,-
ClC1=CC=CC(=N1)C(Cl)(Cl)Cl,-,-,872,nitrapyrin,A170,15154768,-,-,-3.76,log(mol/L),3.76,-log(M),,,-,,-,,,,-
O=C1CN=C(C2=CC=CC=C2)C3=CC(=CC=C3N1)N(=O)=O,-,-,873,Nitrazepam,A170,15154768,-,-,-3.796,log(mol/L),3.796,-log(M),,,-,,-,,,,-
O=N(=O)C1=CC=CC=C1,-,-,874,nitrobenzene,A170,15154768,-,-,-1.8,log(mol/L),1.8,-log(M),,,-,,-,,,,-
CCN(=O)=O,-,-,875,Nitroethane,A170,15154768,-,-,-0.22,log(mol/L),0.22,-log(M),,,-,,-,,,,-
ClC1=CC=C(OC2=CC=C(C=C2)N(=O)=O)C(Cl)=C1,-,-,876,nitrofen,A170,15154768,-,-,-5.46,log(mol/L),5.46,-log(M),,,-,,-,,,,-
O=C1CN(N=CC2=CC=C(O2)N(=O)=O)C(=O)N1,-,-,877,nitrofurantoin,A170,15154768,-,-,-3.38,log(mol/L),3.38,-log(M),,,-,,-,,,,-
O=N(=O)OCC(CON(=O)=O)ON(=O)=O,-,-,878,nitroglycerin,A170,15154768,-,-,-2.22,log(mol/L),2.22,-log(M),,,-,,-,,,,-
CN(=O)=O,-,-,879,Nitromethane,A170,15154768,-,-,0.26,log(mol/L),-0.26,-log(M),,,-,,-,,,,-
CNC1=CC=CC=C1,-,-,880,N-Methylaniline,A170,15154768,-,-,-1.28,log(mol/L),1.28,-log(M),,,-,,-,,,,-
CCCCCCCCC,-,-,881,Nonane,A170,15154768,-,-,-5.88,log(mol/L),5.88,-log(M),,,-,,-,,,,-
OC(C1=CC2C3C(C1C2=C(C4=CC=CC=C4)C5=CC=CC=N5)C(=O)NC3=O)(C6=CC=CC=C6)C7=CC=CC=N7,-,-,882,Norbormide,A170,15154768,-,-,-3.931,log(mol/L),3.931,-log(M),,,-,,-,,,,-
CN(C)C(=O)NC1CC2CC1C3CCCC23,-,-,883,Norea,A170,15154768,-,-,-3.171,log(mol/L),3.171,-log(M),,,-,,-,,,,-
CC(=O)OC1(CCC2C3CCC4=CC(=O)CCC4C3CCC12C)C#C,-,-,884,Norethindrone acetate,A170,15154768,-,-,-4.8,log(mol/L),4.8,-log(M),,,-,,-,,,,-
CC12CCC3C(CCC4=CC(=O)CCC34O)C1CCC2(O)C#C,-,-,885,norethisterone,A170,15154768,-,-,-4.57,log(mol/L),4.57,-log(M),,,-,,-,,,,-
CNC=1C=NN(C2=CC=CC(=C2)C(F)(F)F)C(=O)C1Cl,-,-,886,norflurazon,A170,15154768,-,-,-4.046,log(mol/L),4.046,-log(M),,,-,,-,,,,-
ClC(Cl)C(C1=CC=C(Cl)C=C1)C2=CC=CC=C2Cl,-,-,887,"O,P'-DDD",A170,15154768,-,-,-6.51,log(mol/L),6.51,-log(M),,,-,,-,,,,-
NC1=CC=CC=C1O,-,-,888,o-Aminophenol,A170,15154768,-,-,-0.72,log(mol/L),0.72,-log(M),,,-,,-,,,,-
NC1=CC=CC=C1Cl,-,-,889,o-Chloroaniline,A170,15154768,-,-,-1.52,log(mol/L),1.52,-log(M),,,-,,-,,,,-
ClC1=CC=CC=C1Br,-,-,890,o-Chlorobromobenzene,A170,15154768,-,-,-3.19,log(mol/L),3.19,-log(M),,,-,,-,,,,-
ClC1=CC=CC=C1I,-,-,891,o-Chloroiodobenzene,A170,15154768,-,-,-3.54,log(mol/L),3.54,-log(M),,,-,,-,,,,-
ClC1=CC=CC=C1N(=O)=O,-,-,892,o-Chloronitrobenzene,A170,15154768,-,-,-2.55,log(mol/L),2.55,-log(M),,,-,,-,,,,-
CCCCCCCC,-,-,893,Octane,A170,15154768,-,-,-5.24,log(mol/L),5.24,-log(M),,,-,,-,,,,-
CCOC(=O)N,-,-,894,o-ethyl carbamate,A170,15154768,-,-,0.85,log(mol/L),-0.85,-log(M),,,-,,-,,,,-
FC1=CC=CC=C1Br,-,-,895,o-Fluorobromobenzene,A170,15154768,-,-,-2.7,log(mol/L),2.7,-log(M),,,-,,-,,,,-
NC(C1=CC=CC=C1O)=O,-,-,896,o-Hydroxybenzamide,A170,15154768,-,-,-1.82,log(mol/L),1.82,-log(M),,,-,,-,,,,-
NC1=CC=CC=C1N(=O)=O,-,-,898,o-Nitroaniline,A170,15154768,-,-,-1.96,log(mol/L),1.96,-log(M),,,-,,-,,,,-
COC1=CC=CC=C1N(=O)=O,-,-,899,o-Nitroanisole,A170,15154768,-,-,-1.96,log(mol/L),1.96,-log(M),,,-,,-,,,,-
OC1=CC=CC=C1N(=O)=O,-,-,900,o-Nitrophenol,A170,15154768,-,-,-1.74,log(mol/L),1.74,-log(M),,,-,,-,,,,-
CC1=CC=CC=C1N(=O)=O,-,-,901,o-Nitrotoluene,A170,15154768,-,-,-2.33,log(mol/L),2.33,-log(M),,,-,,-,,,,-
CCCN(CCC)C1=C(C=C(C=C1N(=O)=O)S(N)(=O)=O)N(=O)=O,-,-,902,oryzalin,A170,15154768,-,-,-5.16,log(mol/L),5.16,-log(M),,,-,,-,,,,-
C1=CC=2C=CC(OC)=C(CC=C(C)C)C2OC1=O,-,-,903,osthole,A170,15154768,-,-,-4.314,log(mol/L),4.314,-log(M),,,-,,-,,,,-
CC1=CC=CC=C1N,-,-,904,o-Toluidine,A170,15154768,-,-,-2.21,log(mol/L),2.21,-log(M),,,-,,-,,,,-
CC(C)OC1=CC(=C(Cl)C=C1Cl)N2N=C(OC2=O)C(C)(C)C,-,-,905,oxadiazon,A170,15154768,-,-,-5.696,log(mol/L),5.696,-log(M),,,-,,-,,,,-
CNC(=O)ON=C(SC)C(=O)N(C)C,-,-,906,Oxamyl,A170,15154768,-,-,0.106,log(mol/L),-0.106,-log(M),,,-,,-,,,,-
OC1N=C(C2=CC(Cl)=CC=C2NC1=O)C3=CC=CC=C3,-,-,907,Oxazepam,A170,15154768,-,-,-3.952,log(mol/L),3.952,-log(M),,,-,,-,,,,-
CC1=C(C(=O)NC2=CC=CC=C2)S(=O)(=O)CCO1,-,-,908,oxycarboxin,A170,15154768,-,-,-2.281,log(mol/L),2.281,-log(M),,,-,,-,,,,-
CC1=CC=CC=C1C,-,-,909,o-Xylene,A170,15154768,-,-,-2.8,log(mol/L),2.8,-log(M),,,-,,-,,,,-
CCCCC1C(=O)N(N(C1=O)C2=CC=C(O)C=C2)C3=CC=CC=C3,-,-,910,oxyphenbutazone,A170,15154768,-,-,-3.73,log(mol/L),3.73,-log(M),,,-,,-,,,,-
NC1=CC=C(C=C1)C2=CC=C(N)C=C2,-,-,911,"p,p'-Biphenyldiamine",A170,15154768,-,,-2.7,log(mol/L),2.7,-log(M),,,-,,-,,,,-
ClC(Cl)C(C1=CC=C(Cl)C=C1)C2=CC=C(Cl)C=C2,-,-,912,"P,P'-DDD",A170,15154768,-,,-7.21,log(mol/L),7.21,-log(M),,,-,,-,,,,-
ClC(Cl)=C(C1=CC=C(Cl)C=C1)C2=CC=C(Cl)C=C2,-,-,913,"P,P'-DDE",A170,15154768,-,,-6.91,log(mol/L),6.91,-log(M),,,-,,-,,,,-
NC1=CC=C(O)C=C1,-,-,914,p-Aminophenol,A170,15154768,-,-,-0.8,log(mol/L),0.8,-log(M),,,-,,-,,,,-
O=C1NC(=O)C(=O)N1,-,-,915,parabanic acid,A170,15154768,-,-,-0.4,log(mol/L),0.4,-log(M),,,-,,-,,,,-
CCOP(=S)(OCC)OC1=CC=C(C=C1)N(=O)=O,-,-,916,parathion,A170,15154768,-,-,-4.66,log(mol/L),4.66,-log(M),,,-,,-,,,,-
NC1=CC=C(C=C1)C2=CC=C(N)C=C2,-,-,917,p-benzidine,A170,15154768,-,,-2.71,log(mol/L),2.71,-log(M),,,-,,-,,,,-
CC(NC1=CC=C(Br)C=C1)=O,-,-,918,p-Bromoacetanilide,A170,15154768,-,-,-3.083,log(mol/L),3.083,-log(M),,,-,,-,,,,-
BrC1=CC=C(I)C=C1,-,-,919,p-Bromoiodobenzene,A170,15154768,-,-,-4.56,log(mol/L),4.56,-log(M),,,-,,-,,,,-
CC(NC1=CC=C(Cl)C=C1)=O,-,-,920,p-Chloroacetanilide,A170,15154768,-,-,-2.843,log(mol/L),2.843,-log(M),,,-,,-,,,,-
NC1=CC=C(Cl)C=C1,-,-,921,p-Chloroaniline,A170,15154768,-,-,-1.66,log(mol/L),1.66,-log(M),,,-,,-,,,,-
ClC1=CC=C(Br)C=C1,-,-,922,p-Chlorobromobenzene,A170,15154768,-,-,-3.63,log(mol/L),3.63,-log(M),,,-,,-,,,,-
ClC1=CC=C(I)C=C1,-,-,923,p-Chloroiodobenzene,A170,15154768,-,-,-4.03,log(mol/L),4.03,-log(M),,,-,,-,,,,-
ClC1=CC=C(C=C1)N(=O)=O,-,-,924,p-Chloronitrobenzene,A170,15154768,-,-,-2.92,log(mol/L),2.92,-log(M),,,-,,-,,,,-
CC1=CC=C(C=C1)O,-,-,925,p-cresol,A170,15154768,-,-,-0.73,log(mol/L),0.73,-log(M),,,-,,-,,,,-
CCCCN(CC)C(=O)SCCC,-,-,926,Pebulate,A170,15154768,-,-,-3.53,log(mol/L),3.53,-log(M),,,-,,-,,,,-
ClC1=CC=C(CN(C2CCCC2)C(=O)NC3=CC=CC=C3)C=C1,-,-,927,Pencycuron,A170,15154768,-,-,-5.915,log(mol/L),5.915,-log(M),,,-,,-,,,,-
ClC1=CC(Cl)=C(Cl)C(Cl)=C1Cl,-,-,928,pentachlorobenzene,A170,15154768,-,-,-5.65,log(mol/L),5.65,-log(M),,,-,,-,,,,-
ClC(Cl)C(Cl)(Cl)Cl,-,-,929,pentachloroethane,A170,15154768,-,-,-2.6,log(mol/L),2.6,-log(M),,,-,,-,,,,-
OC1=C(Cl)C(Cl)=C(Cl)C(Cl)=C1Cl,-,-,930,Pentachlorophenol,A170,15154768,-,-,-4.28,log(mol/L),4.28,-log(M),,,-,,-,,,,-
CC1=CC(C)=C(C)C(C)=C1C,-,-,931,pentamethylbenzene,A170,15154768,-,-,-4.0,log(mol/L),4.0,-log(M),,,-,,-,,,,-
CCCCC,-,-,932,Pentane,A170,15154768,-,-,-3.18,log(mol/L),3.18,-log(M),,,-,,-,,,,-
O=C1NC(=O)NC(=O)C1(CC)C(C)CCC,-,-,933,pentobarbital,A170,15154768,-,-,-2.39,log(mol/L),2.39,-log(M),,,-,,-,,,,-
CCCCCOC(=O)C,-,-,934,Pentyl acetate,A170,15154768,-,-,-1.89,log(mol/L),1.89,-log(M),,,-,,-,,,,-
CCCCC(OCC)=O,-,-,935,Pentyl propanoate,A170,15154768,-,-,-2.25,log(mol/L),2.25,-log(M),,,-,,-,,,,-
CCCCCC1=CC=CC=C1,-,-,936,Pentylbenzene,A170,15154768,-,-,-4.64,log(mol/L),4.64,-log(M),,,-,,-,,,,-
CCCCCC1CCCC1,-,-,937,Pentylcyclopentane,A170,15154768,-,-,-6.08,log(mol/L),6.08,-log(M),,,-,,-,,,,-
CC1=CC(=CC=C1NS(=O)(=O)C(F)(F)F)S(=O)(=O)C2=CC=CC=C2,-,-,938,perfluidone,A170,15154768,-,-,-3.8,log(mol/L),3.8,-log(M),,,-,,-,,,,-
CC1(C)C(C=C(Cl)Cl)C1C(=O)OCC2=CC=CC(OC3=CC=CC=C3)=C2,-,-,939,permethrin,A170,15154768,-,-,-6.291,log(mol/L),6.291,-log(M),,,-,,-,,,,-
C1=CC=2C=CC=C3C=4C=CC=C5C=CC=C(C(=C1)C23)C54,-,-,940,perylene,A170,15154768,-,-,-8.804,log(mol/L),8.804,-log(M),,,-,,-,,,,-
CC(=O)NC1=CC=C(F)C=C1,-,-,941,p-Fluoroacetanilide,A170,15154768,-,-,-1.78,log(mol/L),1.78,-log(M),,,-,,-,,,,-
CCOC1=CC=C(NC(=O)C)C=C1,-,-,942,phenacetin,A170,15154768,-,-,-2.35,log(mol/L),2.35,-log(M),,,-,,-,,,,-
C1=CC=C2C(=C1)C=CC=3C=CC=CC32,-,-,943,Phenanthrene,A170,15154768,-,-,-5.26,log(mol/L),5.26,-log(M),,,-,,-,,,,-
C1=CC=C2C(=C1)C=NC=3C=CC=CC23,-,-,944,phenanthridine,A170,15154768,-,-,-2.78,log(mol/L),2.78,-log(M),,,-,,-,,,,-
CCOC1=CC=CC=C1,-,-,945,phenetole,A170,15154768,-,-,-2.33,log(mol/L),2.33,-log(M),,,-,,-,,,,-
COC(=O)NC1=CC=CC(OC(=O)NC2=CC=CC(C)=C2)=C1,-,-,946,Phenmedipham,A170,15154768,-,-,-4.805,log(mol/L),4.805,-log(M),,,-,,-,,,,-
C1=CC=C(C=C1)O,-,-,948,Phenol,A170,15154768,-,-,0.0,log(mol/L),0.0,-log(M),,,-,,-,,,,-
OC1=CC=C(C=C1)C2(OC(=O)C3=CC=CC=C23)C4=CC=C(O)C=C4,-,-,949,phenolphthalein,A170,15154768,-,-,-2.9,log(mol/L),2.9,-log(M),,,-,,-,,,,-
CC(C)=CC1C(C(=O)OCC2=CC=CC(OC3=CC=CC=C3)=C2)C1(C)C,-,-,950,phenothrin,A170,15154768,-,-,-5.24,log(mol/L),5.24,-log(M),,,-,,-,,,,-
CCCCC1C(N(C2=CC=CC=C2)N(C3=CC=CC=C3)C1=O)=O,-,-,951,Phenylbutazone,A170,15154768,-,-,-3.81,log(mol/L),3.81,-log(M),,,-,,-,,,,-
NNC1=CC=CC=C1,-,-,952,Phenylhydrazine,A170,15154768,-,-,0.07,log(mol/L),-0.07,-log(M),,,-,,-,,,,-
OCC1=CC=CC=C1,-,-,953,phenylmethanol,A170,15154768,-,-,-0.4,log(mol/L),0.4,-log(M),,,-,,-,,,,-
NC(NC1=CC=CC=C1)=S,-,-,954,Phenylthiourea,A170,15154768,-,-,-1.77,log(mol/L),1.77,-log(M),,,-,,-,,,,-
O=C1NC(=O)C(N1)(C2=CC=CC=C2)C3=CC=CC=C3,-,-,955,Phenytoin,A170,15154768,-,-,-4.097,log(mol/L),4.097,-log(M),,,-,,-,,,,-
CCOP(=S)(OCC)SCSCC,-,-,956,phorate,A170,15154768,-,-,-4.11,log(mol/L),4.11,-log(M),,,-,,-,,,,-
CCOP(=S)(OCC)SCN1C(=O)OC=2C=C(Cl)C=CC12,-,-,957,Phosalone,A170,15154768,-,-,-5.233,log(mol/L),5.233,-log(M),,,-,,-,,,,-
CCOP(=S)(OCC)ON=C(C#N)C1=CC=CC=C1,-,-,958,Phoxim,A170,15154768,-,-,-4.862,log(mol/L),4.862,-log(M),,,-,,-,,,,-
C1=CC2C(=O)NC(=O)C2C=C1,-,-,959,phthalamide,A170,15154768,-,-,-2.932,log(mol/L),2.932,-log(M),,,-,,-,,,,-
O=C1NC(=O)C2=CC=CC=C12,-,-,960,phthalimide,A170,15154768,-,-,-2.61,log(mol/L),2.61,-log(M),,,-,,-,,,,-
N#CC1=CC=CC=C1C#N,-,-,961,phthalonitrile,A170,15154768,-,-,-2.38,log(mol/L),2.38,-log(M),,,-,,-,,,,-
CC(NC1=CC=C(O)C=C1)=O,-,-,962,p-Hydroxyacetanilide,A170,15154768,-,-,-1.03,log(mol/L),1.03,-log(M),,,-,,-,,,,-
OC1=CC=C(C=O)C=C1,-,-,963,p-hydroxybenzaldehyde,A170,15154768,-,-,-0.96,log(mol/L),0.96,-log(M),,,-,,-,,,,-
C1=CC=C2C(=C1)C=CC3=C2C=CC=4C=5C=CC=CC5C=CC43,-,-,964,Picene,A170,15154768,-,-,-7.87,log(mol/L),7.87,-log(M),,,-,,-,,,,-
O=C(C=CC=CC1=CC=C2OCOC2=C1)N3CCCCC3,-,-,965,piperine,A170,15154768,-,-,-3.46,log(mol/L),3.46,-log(M),,,-,,-,,,,-
O=CC1=CC=C2OCOC2=C1,-,-,966,piperonal,A170,15154768,-,-,-1.63,log(mol/L),1.63,-log(M),,,-,,-,,,,-
CCCOP(=S)(OCCC)SCC(=O)N1CCCCC1C,-,-,967,Piperophos,A170,15154768,-,-,-4.15,log(mol/L),4.15,-log(M),,,-,,-,,,,-
CN(C)C(=O)OC1=NC(=NC(C)=C1C)N(C)C,-,-,968,Pirimicarb,A170,15154768,-,-,-1.95,log(mol/L),1.95,-log(M),,,-,,-,,,,-
CN1C(=C(O)C2=CC=CC=C2S1(=O)=O)C(=O)NC3=CC=CC=N3,-,-,969,Piroxicam,A170,15154768,-,-,-4.16,log(mol/L),4.16,-log(M),,,-,,-,,,,-
COC1=CC=C(C=O)C=C1,-,-,970,p-methoxybenzaldehyde,A170,15154768,-,-,-1.49,log(mol/L),1.49,-log(M),,,-,,-,,,,-
CC1=CC=C(C=C1)N,-,-,971,p-Methylaniline,A170,15154768,-,-,-1.21,log(mol/L),1.21,-log(M),,,-,,-,,,,-
NC1=CC=C(N(=O)=O)C=C1,-,-,972,p-Nitroaniline,A170,15154768,-,-,-2.37,log(mol/L),2.37,-log(M),,,-,,-,,,,-
COC1=CC=C(C=C1)N(=O)=O,-,-,973,p-Nitroanisole,A170,15154768,-,-,-2.41,log(mol/L),2.41,-log(M),,,-,,-,,,,-
OC1=CC=C(N(=O)=O)C=C1,-,-,974,p-Nitrophenol,A170,15154768,-,-,-0.74,log(mol/L),0.74,-log(M),,,-,,-,,,,-
CC1=CC=C(N(=O)=O)C=C1,-,-,975,p-Nitrotoluene,A170,15154768,-,-,-2.49,log(mol/L),2.49,-log(M),,,-,,-,,,,-
OC1=CC=C(C=C1)C2=CC=CC=C2,-,-,976,p-phenylphenol,A170,15154768,-,-,-3.48,log(mol/L),3.48,-log(M),,,-,,-,,,,-
CC12CCC3C(CC=C4CC(O)CCC34C)C1CCC2=O,-,-,977,prasterone,A170,15154768,-,-,-4.12,log(mol/L),4.12,-log(M),,,-,,-,,,,-
CC12CC(O)C3C(CCC4=CC(=O)C=CC34C)C1CCC2(O)C(=O)CO,-,-,978,Prednisolone,A170,15154768,-,-,-3.18,log(mol/L),3.18,-log(M),,,-,,-,,,,-
CC(=O)OCC(=O)C1(O)CCC2C3CCC4=CC(=O)C=CC4(C)C3C(O)CC12C,-,-,979,prednisolone acetate,A170,15154768,-,-,-4.37,log(mol/L),4.37,-log(M),,,-,,-,,,,-
CC(=O)C1CCC2C3CC=C4CC(O)CCC4(C)C3CCC12C,-,-,980,pregnenolone,A170,15154768,-,-,-4.65,log(mol/L),4.65,-log(M),,,-,,-,,,,-
CCC1(C(=O)NCNC1=O)C2=CC=CC=C2,-,-,981,Primidone,A170,15154768,-,-,-2.64,log(mol/L),2.64,-log(M),,,-,,-,,,,-
CCC1(C(C)C)C(=O)NC(=O)NC1=O,-,-,982,probarbital,A170,15154768,-,-,-2.21,log(mol/L),2.21,-log(M),,,-,,-,,,,-
CC12CC1(C)C(=O)N(C2=O)C3=CC(Cl)=CC(Cl)=C3,-,-,983,Procymidone,A170,15154768,-,-,-4.8,log(mol/L),4.8,-log(M),,,-,,-,,,,-
CC(=O)C1CCC2C3CCC4=CC(=O)CCC4(C)C3CCC12C,-,-,984,progesterone,A170,15154768,-,-,-4.42,log(mol/L),4.42,-log(M),,,-,,-,,,,-
COC1=NC(NC(C)C)=NC(NC(C)C)=N1,-,-,985,Prometon,A170,15154768,-,-,-2.478,log(mol/L),2.478,-log(M),,,-,,-,,,,-
CSC1=NC(NC(C)C)=NC(NC(C)C)=N1,-,-,986,prometryn,A170,15154768,-,-,-4.1,log(mol/L),4.1,-log(M),,,-,,-,,,,-
CC(C)N(C(=O)CCl)C1=CC=CC=C1,-,-,987,propachlor,A170,15154768,-,-,-2.48,log(mol/L),2.48,-log(M),,,-,,-,,,,-
CCC,-,-,988,Propane,A170,15154768,-,-,-1.94,log(mol/L),1.94,-log(M),,,-,,-,,,,-
CCC(=O)NC1=CC=C(Cl)C(Cl)=C1,-,-,989,propanil,A170,15154768,-,-,-3.0,log(mol/L),3.0,-log(M),,,-,,-,,,,-
CC(C)NC1=NC(Cl)=NC(NC(C)C)=N1,-,-,990,propazine,A170,15154768,-,-,-4.43,log(mol/L),4.43,-log(M),,,-,,-,,,,-
CCNP(=S)(OC)OC(=CC(=O)OC(C)C)C,-,-,991,Propetamphos,A170,15154768,-,-,-3.408,log(mol/L),3.408,-log(M),,,-,,-,,,,-
CCCC1COC(CN2C=NC=N2)(O1)C3=CC=C(Cl)C=C3Cl,-,-,992,Propiconazole,A170,15154768,-,-,-3.493,log(mol/L),3.493,-log(M),,,-,,-,,,,-
CCC=O,-,-,993,Propionaldehyde,A170,15154768,-,-,0.58,log(mol/L),-0.58,-log(M),,,-,,-,,,,-
C(C)C#N,-,-,994,Propionitrile,A170,15154768,-,-,0.28,log(mol/L),-0.28,-log(M),,,-,,-,,,,-
CNC(=O)OC1=CC=CC=C1OC(C)C,-,-,995,propoxur,A170,15154768,-,-,-2.05,log(mol/L),2.05,-log(M),,,-,,-,,,,-
CCCOC(=O)C,-,-,996,Propyl acetate,A170,15154768,-,-,-0.72,log(mol/L),0.72,-log(M),,,-,,-,,,,-
C(CCC)(=O)OC,-,-,997,propyl butyrate,A170,15154768,-,-,-1.92,log(mol/L),1.92,-log(M),,,-,,-,,,,-
CCCOC=O,-,-,998,propyl formate,A170,15154768,-,-,-0.49,log(mol/L),0.49,-log(M),,,-,,-,,,,-
CCCCC(OC)=O,-,-,999,Propyl propanoate,A170,15154768,-,-,-1.34,log(mol/L),1.34,-log(M),,,-,,-,,,,-
CCCC1=CC=CC=C1,-,-,1000,Propylbenzene,A170,15154768,-,-,-3.37,log(mol/L),3.37,-log(M),,,-,,-,,,,-
CCCC1CCCC1,-,-,1001,Propylcyclopentane,A170,15154768,-,-,-4.74,log(mol/L),4.74,-log(M),,,-,,-,,,,-
CC=C,-,-,1002,Propylene,A170,15154768,-,-,-1.08,log(mol/L),1.08,-log(M),,,-,,-,,,,-
CCCOC(C)C,-,-,1003,Propylisopropylether,A170,15154768,-,-,-1.34,log(mol/L),1.34,-log(M),,,-,,-,,,,-
CC#C,-,-,1004,Propyne,A170,15154768,-,-,-0.41,log(mol/L),0.41,-log(M),,,-,,-,,,,-
CC(C)(C)C1=CC=C(O)C=C1,-,-,1005,p-t-butylphenol,A170,15154768,-,-,-2.41,log(mol/L),2.41,-log(M),,,-,,-,,,,-
N1=C2C(=NC=C1)N=CN=C2,-,-,1006,pteridine,A170,15154768,-,,0.02,log(mol/L),-0.02,-log(M),,,-,,-,,,,-
C1=CC=C(C=C1)C2=CC=C(C=C2)C3=CC=CC=C3,-,-,1007,p-terphenyl,A170,15154768,-,-,-7.11,log(mol/L),7.11,-log(M),,,-,,-,,,,-
CC1=CC=C(C=C1)S(=O)(=O)N,-,-,1008,p-Toluenesulfonamide,A170,15154768,-,-,-1.74,log(mol/L),1.74,-log(M),,,-,,-,,,,-
CC1=CC=C(C=C1)C,-,-,1009,p-xylene,A170,15154768,-,-,-2.77,log(mol/L),2.77,-log(M),,,-,,-,,,,-
CC1=C(CCCO1)C(=O)NC2=CC=CC=C2,-,-,1010,pyracarbolid,A170,15154768,-,-,-2.56,log(mol/L),2.56,-log(M),,,-,,-,,,,-
NC(C1=CN=CC=N1)=O,-,-,1011,Pyrazinamide,A170,15154768,-,-,-0.667,log(mol/L),0.667,-log(M),,,-,,-,,,,-
NC=1C=NN(C2=CC=CC=C2)C(=O)C1Cl,-,-,1012,pyrazon,A170,15154768,-,-,-2.878,log(mol/L),2.878,-log(M),,,-,,-,,,,-
C1=2C=CC=3C=CC=C4C=CC(=CC=C1)C2C43,-,-,1013,pyrene,A170,15154768,-,-,-6.176,log(mol/L),6.176,-log(M),,,-,,-,,,,-
C1=CC=NN=C1,-,-,1014,pyridazine,A170,15154768,-,-,1.1,log(mol/L),-1.1,-log(M),,,-,,-,,,,-
C1=CC=NC=C1,-,-,1015,pyridine,A170,15154768,-,-,0.76,log(mol/L),-0.76,-log(M),,,-,,-,,,,-
C1=CN=CN=C1,-,-,1016,pyrimidine,A170,15154768,-,-,1.1,log(mol/L),-1.1,-log(M),,,-,,-,,,,-
CN(C)C(=O)OC1=CC(C)=NN1C2=CC=CC=C2,-,-,1017,pyrolan,A170,15154768,-,-,-2.09,log(mol/L),2.09,-log(M),,,-,,-,,,,-
CCC1NC(=O)C2=CC(=C(Cl)C=C2N1)S(N)(=O)=O,-,-,1018,quinethazone,A170,15154768,-,-,-3.29,log(mol/L),3.29,-log(M),,,-,,-,,,,-
C1=CC=C2N=CC=CC2=C1,-,-,1019,Quinoline,A170,15154768,-,-,-1.3,log(mol/L),1.3,-log(M),,,-,,-,,,,-
ClC(Cl)CC(=O)NC1=C(Cl)C(=O)C2=CC=CC=C2C1=O,-,-,1020,quinonamid,A170,15154768,-,-,-5.03,log(mol/L),5.03,-log(M),,,-,,-,,,,-
ClC1=C(Cl)C(Cl)=C(N(=O)=O)C(Cl)=C1Cl,-,-,1021,quintozene,A170,15154768,-,-,-5.82,log(mol/L),5.82,-log(M),,,-,,-,,,,-
OCC1OC(CO)(OC2OC(COC3OC(CO)C(O)C(O)C3O)C(O)C(O)C2O)C(O)C1O,-,-,1022,Raffinose,A170,15154768,-,-,-0.41,log(mol/L),0.41,-log(M),,,-,,-,,,,-
CCC1(C(=O)NC(=O)NC1=O)C2=CCC3CCC2C3,-,-,1023,reposal,A170,15154768,-,-,-2.696,log(mol/L),2.696,-log(M),,,-,,-,,,,-
CCN1C2=NC=CC=C2N(C)C(=O)C3=CC=CN=C13,-,-,1024,Reverse Transcriptase inhibitor 1,A170,15154768,-,-,-2.62,log(mol/L),2.62,-log(M),,,-,,-,,,,-
C1SC(=S)NC1=O,-,-,1025,rhodanine,A170,15154768,-,-,-1.77,log(mol/L),1.77,-log(M),,,-,,-,,,,-