SMILES,CASRN,EXTERNALID,N,NAME,ARTICLEID,PUBMEDID,PAGE,TABLE,Solubility_log(mol/L),UNIT {Water solubility},"Water solubility {measured, converted}",UNIT {Water solubility}.1,Dataset,Temperature,UNIT {Temperature},Ionic strength,UNIT {Ionic strength},comment (chemical),source,pH,UNIT {pH}
OCCN1CCN(CC1)CCCN2C3=C(C=CC(C(F)(F)F)=C3)SC4=C2C=CC=C4,69-23-8,-,680,Fluphenazine,A64,11749573,-,-,-4.15,log(mol/L),4.15,-log(M),Train,,-,,-,,,,-
COC1=CC=C(OC2=CC=C(C=C2)NC(N(C)C)=O)C=C1,14214-32-5,-,681,difenoxuron,A64,11749573,-,-,-4.16,log(mol/L),4.16,-log(M),Train,,-,,-,,,,-
COC1=CC=C2C(C=CC(C(C)C(O)=O)=C2)=C1,22204-53-1,-,682,naprosyn,A64,11749573,-,-,-4.16,log(mol/L),4.16,-log(M),Train,,-,,-,,,,-
CCCCC1=C(OS(=O)(N(C)C)=O)N=C(NCC)N=C1C,41483-43-6,-,683,bupirimate,A64,11749573,-,-,-4.16,log(mol/L),4.16,-log(M),Train,,-,,-,,,,-
ClC1=CC2=C(C=C1)SC3=C(C=CC=C3)N2CCCN4CCN(CCO)CC4,58-39-9,-,684,Perphenazine,A64,11749573,-,-,-4.16,log(mol/L),4.16,-log(M),Train,,-,,-,,,,-
CC12C(CCC3C1CCC4(C3CCC4=O)C)CC(CC2)O,481-29-8,-,685,epiandrosterone,A64,11749573,-,-,-4.16,log(mol/L),4.16,-log(M),Train,,-,,-,,,,-
CCC=1C=2C=CC=CC2C=CC1,1127-76-0,-,686,1-ethylnaphthalene,A64,11749573,-,-,-4.17,log(mol/L),4.17,-log(M),Train,,-,,-,,,,-
C1(CC2=CC=CC=C2)=CC=CC=C1,101-81-5,-,687,diphenylmethane,A64,11749573,-,-,-4.17,log(mol/L),4.17,-log(M),Train,,-,,-,,,,-
OC1(C(OC)=O)C2=C(C=CC(Cl)=C2)C3=C1C=CC=C3,2536-31-4,-,688,Methyl-2-chloro-9-hydroxyfluorene-9-carboxylate,A64,11749573,-,-,-4.18,log(mol/L),4.18,-log(M),Train,,-,,-,,,,-
CN(CCCN1C2=C(CCC3=C1C=CC=C3)C=CC=C2)C,50-49-7,-,689,Imipramine,A64,11749573,-,-,-4.19,log(mol/L),4.19,-log(M),Train,,-,,-,,,,-
O=C(CCl)N(C1=C(CC)C=CC=C1CC)COCCCC,23184-66-9,-,690,butachlor,A64,11749573,-,-,-4.19,log(mol/L),4.19,-log(M),Train,,-,,-,,,,-
ClC(Cl)(Cl)C(N1CCN(C(NC=O)C(Cl)(Cl)Cl)CC1)NC=O,26644-46-2,-,691,triforine,A64,11749573,-,-,-4.19,log(mol/L),4.19,-log(M),Train,,-,,-,,,,-
CC(OP(OC(C)C)(SCCNS(=O)(C1=CC=CC=C1)=O)=S)C,741-58-2,-,692,bensulide,A64,11749573,-,-,-4.2,log(mol/L),4.2,-log(M),Train,,-,,-,,,,-
O=S(NC(NC1CCCCC1)=O)(C2=CC=C(C=C2)C)=O,664-95-9,-,693,tolcyclamide,A64,11749573,-,-,-4.21,log(mol/L),4.21,-log(M),Train,,-,,-,,,,-
O=C(C1=CC=CC=C1I)NC2=CC=CC=C2,15310-01-7,-,694,benodanil,A64,11749573,-,-,-4.21,log(mol/L),4.21,-log(M),Train,,-,,-,,,,-
CC(CN(C)C)CN1C2=CC(OC)=CC=C2SC3=C1C=CC=C3,60-99-1,-,695,methotrimeprazine,A64,11749573,-,-,-4.22,log(mol/L),4.22,-log(M),Train,,-,,-,,,,-
NC=1C2=CC=3C=CC=CC3N=C2C=CC1,578-06-3,-,696,1-aminoacridine,A64,11749573,-,-,-4.22,log(mol/L),4.22,-log(M),Train,,-,,-,,,,-
S=P(OCC)(OCC)SCCSCC,298-04-4,-,697,disulfoton,A64,11749573,-,-,-4.23,log(mol/L),4.23,-log(M),Train,,-,,-,,,,-
O=C(OC1=CC(C(C)(C)C)=CC(C(C)(C)C)=C1)NC,2655-19-8,-,698,butacarb,A64,11749573,-,-,-4.24,log(mol/L),4.24,-log(M),Train,,-,,-,,,,-
N#CC1=C(Cl)C=CC=C1Cl,1194-65-6,-,699,"2,6-dichlorobenzonitrile",A64,11749573,-,-,-4.24,log(mol/L),4.24,-log(M),Train,,-,,-,,,,-
C#CCCCCCCC,-,-,700,1-nonyne,A64,11749573,-,-,-4.24,log(mol/L),4.24,-log(M),Train,,-,,-,,,,-
CCC1CCCCC1,1678-91-7,-,701,ethylcyclohexane,A64,11749573,-,-,-4.25,log(mol/L),4.25,-log(M),Train,,-,,-,,,,-
CC(C)CC(C)C,108-08-7,-,702,"2,4-dimethylpentane",A64,11749573,-,-,-4.26,log(mol/L),4.26,-log(M),Train,,-,,-,,,,-
C1(C(CCCC1)C)C,-,-,703,"cis-1,2-dimethylcyclohexane",A64,11749573,-,,-4.27,log(mol/L),4.27,-log(M),Train,,-,,-,,,,-
CC=1C=2C=CC=CC2C=C(C)C1,575-41-7,-,704,"1,3-dimethylnaphthalene",A64,11749573,-,-,-4.29,log(mol/L),4.29,-log(M),Train,,-,,-,,,,-
CC(OCC(C1(O)CCC2C3CCC4=CC(CCC4(C)C3C(O)CC21C)=O)=O)=O,50-03-3,-,705,hydrocortisone acetate,A64,11749573,-,-,-4.3,log(mol/L),4.3,-log(M),Train,,-,,-,,,,-
O=C1OC2=C(C=C1)C=CC(OC)=C2CC=C(C)C,484-12-8,-,706,osthole,A64,11749573,-,-,-4.31,log(mol/L),4.31,-log(M),Train,,-,,-,,,,-
O=C(O)CCCCCCCCCCCCCC,1002-84-2,-,707,pentadecanoic acid,A64,11749573,-,-,-4.31,log(mol/L),4.31,-log(M),Train,,-,,-,,,,-
C1(C2=CC=CC=C2)=CC=CC=C1,92-52-4,-,708,biphenyl,A64,11749573,-,-,-4.31,log(mol/L),4.31,-log(M),Train,,-,,-,,,,-
CC1CCCCC1C,6876-23-9,-,709,"trans-1,2-dimethylcyclohexane",A64,11749573,-,-,-4.33,log(mol/L),4.33,-log(M),Train,,-,,-,,,,-
BrC1=CC=CC=2C=CC=CC21,90-11-9,-,710,1-bromonapthtalene,A64,11749573,-,-,-4.35,log(mol/L),4.35,-log(M),Train,,-,,-,,,,-
CC(C1CCC2C3CC(C4CC(CCC4(C3CC(C12C)O)C)O)O)CCC(O)=O,547-75-1,-,711,hyocholic acid,A64,11749573,-,-,-4.35,log(mol/L),4.35,-log(M),Train,,-,,-,,,,-
OC1=CC=C(C(CC)=C(CC)C2=CC=C(O)C=C2)C=C1,56-53-1,-,712,des,A64,11749573,-,-,-4.35,log(mol/L),4.35,-log(M),Train,,-,,-,,,,-
O=C(O)C1=C(C=CC=C1)NC2=CC(C(F)(F)F)=CC=C2,530-78-9,-,713,flufenamic acid,A64,11749573,-,-,-4.36,log(mol/L),4.36,-log(M),Train,,-,,-,,,,-
O=C1C=CC2(C)C(CCC3C2C(O)CC4(C)C3CCC4(O)C(COC(C)=O)=O)=C1,52-21-1,-,714,prednisolone acetate,A64,11749573,-,-,-4.37,log(mol/L),4.37,-log(M),Train,,-,,-,,,,-
O=C(OCC#CCCl)NC1=CC=CC(Cl)=C1,101-27-9,-,715,barbane,A64,11749573,-,-,-4.37,log(mol/L),4.37,-log(M),Train,,-,,-,,,,-
OC1CC2C(C3C(C4C(CC3)(C(=O)CC4)C)CC2)(CC1)C,53-41-8,-,716,androsterone,A64,11749573,-,,-4.4,log(mol/L),4.4,-log(M),Train,,-,,-,,,,-
BrC1=CC=2C=CC=CC2C=C1,580-13-2,-,717,2-bromonaphthalene,A64,11749573,-,-,-4.4,log(mol/L),4.4,-log(M),Train,,-,,-,,,,-
ClC1=CC2=C(C=C1)SC3=C(C=CC=C3)N2CCCN4CCN(C)CC4,58-38-8,-,718,prochlorperazine,A64,11749573,-,-,-4.4,log(mol/L),4.4,-log(M),Train,,-,,-,,,,-
O=C(OCCCC)C1=CC=CC=C1C(OCCCC)=O,84-74-2,-,719,dibutyl phthalate,A64,11749573,-,-,-4.4,log(mol/L),4.4,-log(M),Train,,-,,-,,,,-
CC(C)NC1=NC(NC(C)C)=NC(Cl)=N1,139-40-2,-,721,propazine,A64,11749573,-,-,-4.43,log(mol/L),4.43,-log(M),Train,,-,,-,,,,-
O=C1C(C2=CC(C(F)(F)F)=CC=C2)=CN(C)C=C1C3=CC=CC=C3,59756-60-4,-,722,fluridone,A64,11749573,-,-,-4.44,log(mol/L),4.44,-log(M),Train,,-,,-,,,,-
CCCCCCC=C,111-66-0,-,723,1-Octene,A64,11749573,-,-,-4.44,log(mol/L),4.44,-log(M),Train,,-,,-,,,,-
C1(N=NC2=CC=CC=C2)=CC=CC=C1,103-33-3,-,724,azobenzene,A64,11749573,-,-,-4.45,log(mol/L),4.45,-log(M),Train,,-,,-,,,,-
C12CCC(C2(CCC3C4(CCC(CC4=CCC13)OC(C)=O)C)C)=O,853-23-6,-,725,"5,6-dehydroisoandrosterone acetate",A64,11749573,-,-,-4.46,log(mol/L),4.46,-log(M),Train,,-,,-,,,,-
ClC1=CC(Cl)=CC=C1OC2=C(O)C=C(Cl)C=C2,3380-34-5,-,726,triclosan,A64,11749573,-,-,-4.46,log(mol/L),4.46,-log(M),Train,,-,,-,,,,-
CC1CCC(C)CC1,589-90-2,-,727,"1,4-dimethylcyclohexane",A64,11749573,-,-,-4.47,log(mol/L),4.47,-log(M),Train,,-,,-,,,,-
FC1=CC(C(C(O)=O)C)=CC=C1C2=CC=CC=C2,5104-49-4,-,728,Flurbiprofen,A64,11749573,-,-,-4.49,log(mol/L),4.49,-log(M),Train,,-,,-,,,,-
BrC1=CC(Br)=CC=C1Br,615-54-3,-,729,"1,2,4-tribromobenzene",A64,11749573,-,-,-4.5,log(mol/L),4.5,-log(M),Train,,-,,-,,,,-
ClC1C(Cl)C(Cl)C(Cl)C(Cl)C1Cl,319-86-8,-,730,delta-hexachlorocyclohexane,A64,11749573,-,,-4.51,log(mol/L),4.51,-log(M),Train,,-,,-,,,,-
CCCCCCC,142-82-5,-,731,n-heptane,A64,11749573,-,-,-4.53,log(mol/L),4.53,-log(M),Train,,-,,-,,,,-
ClC1=CC=CC=C1C2=CC=CC=C2,2051-60-7,-,732,2-chlorobiphenyl,A64,11749573,-,-,-4.54,log(mol/L),4.54,-log(M),Train,,-,,-,,,,-
CCNC1=NC(NCC)=NC(Cl)=N1,122-34-9,-,733,simazine,A64,11749573,-,-,-4.55,log(mol/L),4.55,-log(M),Train,,-,,-,,,,-
ClC1=C(Cl)C=CC(Cl)=C1Cl,634-66-2,-,734,"1,2,3,4-tetrachlorobenzene",A64,11749573,-,-,-4.57,log(mol/L),4.57,-log(M),Train,,-,,-,,,,-
O=C1CCC2C(CCC3C2CCC4(C)C3CCC4(C#C)O)=C1,68-22-4,-,735,norethisterone,A64,11749573,-,-,-4.57,log(mol/L),4.57,-log(M),Train,,-,,-,,,,-
CCCCCCCOC(C1=CC=C(N)C=C1)=O,14309-40-1,-,736,heptyl-4-aminobenzoate,A64,11749573,-,-,-4.6,log(mol/L),4.6,-log(M),Train,,-,,-,,,,-
S=C=NC1=CC=CC2=C1C=CC=C2,551-06-4,-,737,1-naphthyl isothiocyanate,A64,11749573,-,-,-4.6,log(mol/L),4.6,-log(M),Train,,-,,-,,,,-
C12=C(C=CC=C1)OC3=C2C=CC=C3,132-64-9,-,738,dibenzofuran,A64,11749573,-,-,-4.6,log(mol/L),4.6,-log(M),Train,,-,,-,,,,-
ClC1=C(OC)C=C(OC)C2=C1OC3(C(OC)=CC(=O)CC3C)C2=O,126-07-8,-,739,Griseofulvin,A64,11749573,-,-,-4.61,log(mol/L),4.61,-log(M),Train,,-,,-,,,,-
ClC1=CC=C(C=C1)C(N2C(C)=C(CC(O)=O)C=3C=C(OC)C=CC32)=O,53-86-1,-,740,Indomethacin,A64,11749573,-,-,-4.62,log(mol/L),4.62,-log(M),Train,,-,,-,,,,-
CCCCCCCCCCCC(O)=O,143-07-7,-,741,vulvic acid,A64,11749573,-,-,-4.62,log(mol/L),4.62,-log(M),Train,,-,,-,,,,-
CCCCCCCCCC(OC)=O,110-42-9,-,742,methyl caprate,A64,11749573,-,-,-4.63,log(mol/L),4.63,-log(M),Train,,-,,-,,,,-
ClC1=C(Cl)C=C(Cl)C=C1Cl,634-90-2,-,743,"1,2,3,5-tetrachlorobenzene",A64,11749573,-,-,-4.63,log(mol/L),4.63,-log(M),Train,,-,,-,,,,-
C=12C=CC=C3CCC(C31)=CC=C2,83-32-9,-,744,Acenaphthene,A64,11749573,-,-,-4.63,log(mol/L),4.63,-log(M),Train,,-,,-,,,,-
CCCCCC1=CC=CC=C1,538-68-1,-,745,n-pentylbenzene,A64,11749573,-,-,-4.64,log(mol/L),4.64,-log(M),Train,,-,,-,,,,-
O=C(C1=CC=CC=C1C(OCC(C)C)=O)OCC(C)C,84-69-5,-,746,diisobutyl phthalate,A64,11749573,-,-,-4.66,log(mol/L),4.66,-log(M),Train,,-,,-,,,,-
CCCCCCCCCCCCO,112-53-8,-,747,dodecanol,A64,11749573,-,-,-4.67,log(mol/L),4.67,-log(M),Train,,-,,-,,,,-
CCCCCCCCCCCC(OC)=O,111-82-0,-,748,methyl laurate,A64,11749573,-,-,-4.69,log(mol/L),4.69,-log(M),Train,,-,,-,,,,-
CC(OCCN1CCN(CC1)CCCN2C3=C(SC4=CC=C(C=C24)Cl)C=CC=C3)=O,84-06-0,-,749,thiopropazate,A64,11749573,-,-,-4.7,log(mol/L),4.7,-log(M),Train,,-,,-,,,,-
O=C(C1=CC(Cl)=CC=C1O)NC2=CC=C(N(=O)=O)C=C2Cl,50-65-7,-,750,niclosamide,A64,11749573,-,-,-4.7,log(mol/L),4.7,-log(M),Train,,-,,-,,,,-
O=C1CCC2(C)C(CCC3C2CCC4(C)C3CCC4(O)C(C)=O)=C1,68-96-2,-,751,17-a-hydroxyprogesterone,A64,11749573,-,-,-4.71,log(mol/L),4.71,-log(M),Train,,-,,-,,,,-
O=C1C=CC2(C)C(CCC3C2(F)C(O)CC4(C)C3CC(C)C4(OC(CCCC)=O)C(CO)=O)=C1,2152-44-5,-,752,betamethasone-17-valerate,A64,11749573,-,-,-4.71,log(mol/L),4.71,-log(M),Train,,-,,-,,,,-
CCCC1CCCC1,2040-96-2,-,753,n-propylcyclopentane,A64,11749573,-,-,-4.74,log(mol/L),4.74,-log(M),Train,,-,,-,,,,-
C1=CC=C2SC3=CC=CC=C3N(CC4CN(C)CCC4)C2=C1,60-89-9,-,754,mepazine,A64,11749573,-,-,-4.74,log(mol/L),4.74,-log(M),Train,,-,,-,,,,-
CC=1C=2C=CC=C(C)C2C=CC1,571-61-9,-,755,"1,5-dimethylnaphthalene",A64,11749573,-,-,-4.74,log(mol/L),4.74,-log(M),Train,,-,,-,,,,-
O=C(NC1=CC(Cl)=C(Cl)C=C1)N(C)CCCC,555-37-3,-,756,neburon,A64,11749573,-,-,-4.77,log(mol/L),4.77,-log(M),Train,,-,,-,,,,-
CCCCCCCI,4282-40-0,-,757,1-iodoheptane,A64,11749573,-,-,-4.81,log(mol/L),4.81,-log(M),Train,,-,,-,,,,-
CC1=CC=CC(=C1)OC2=CC=CC(=C2)C,28299-41-4,-,758,ditolyl ether,A64,11749573,-,-,-4.85,log(mol/L),4.85,-log(M),Train,,-,,-,,,,-
S=C(SSC(N(CC)CC)=S)N(CC)CC,97-77-8,-,759,disulfiram,A64,11749573,-,-,-4.86,log(mol/L),4.86,-log(M),Train,,-,,-,,,,-
ClC1=CC=CC(C2=CC=CC=C2)=C1,2051-61-8,-,760,3-chlorobiphenyl,A64,11749573,-,-,-4.88,log(mol/L),4.88,-log(M),Train,,-,,-,,,,-
O=C1C=CC2(C)C(CCC3C2(F)C(O)CC4(C)C3CC(C)C4(OC(C)=O)C(CO)=O)=C1,1177-87-3,-,761,dexamethasone-17-acetate,A64,11749573,-,-,-4.9,log(mol/L),4.9,-log(M),Train,,-,,-,,,,-
C12=CC=CC=C1CC3=C2C=CC=C3,86-73-7,-,762,Fluorene,A64,11749573,-,-,-4.91,log(mol/L),4.91,-log(M),Train,,-,,-,,,,-
ClC1=CC(C2=CC(Cl)=C(N)C=C2)=CC=C1N,91-94-1,-,763,"3,3?-dichlorobenzidine",A64,11749573,-,-,-4.92,log(mol/L),4.92,-log(M),Train,,-,,-,,,,-
CC1=CC=C(C2=C1C=CC=C2C)C,2131-41-1,-,764,"1,4,5-trimethylnaphthalene",A64,11749573,-,-,-4.92,log(mol/L),4.92,-log(M),Train,,-,,-,,,,-
CC(OC(C(C1=CC=C(Br)C=C1)(C2=CC=C(Br)C=C2)O)=O)C,18181-80-1,-,765,bromopropylate,A64,11749573,-,-,-4.93,log(mol/L),4.93,-log(M),Train,,-,,-,,,,-
CC=C(C1=CC=C(O)C=C1)C(C2=CC=C(O)C=C2)=CC,84-17-3,-,766,dienestrol,A64,11749573,-,-,-4.95,log(mol/L),4.95,-log(M),Train,,-,,-,,,,-
CC12CCC3C(C2CCC1(OC(C)=O)C(C)=O)C=C(Cl)C=4C3(C=CC(C4)=O)C,13698-49-2,-,767,delmadinone acetate,A64,11749573,-,-,-4.95,log(mol/L),4.95,-log(M),Train,,-,,-,,,,-
C=12C=CC=CC1NC3=C2C=CC=C3,86-74-8,-,768,carbazole,A64,11749573,-,-,-4.97,log(mol/L),4.97,-log(M),Train,,-,,-,,,,-
ClC1=CC(Cl)=C(Cl)C2=NSN=C12,1982-55-4,-,769,"4,5,7-trichloro-2,1,3-benzothiadiazole",A64,11749573,-,-,-4.98,log(mol/L),4.98,-log(M),Train,,-,,-,,,,-
CN(C)CCCN1C2=CC(Cl)=CC=C2SC3=C1C=CC=C3,50-53-3,-,770,Chlorpromazine,A64,11749573,-,-,-5.01,log(mol/L),5.01,-log(M),Train,,-,,-,,,,-
O=C1C(NC(C(Cl)Cl)=O)=C(Cl)C(C=2C1=CC=CC2)=O,27541-88-4,-,771,quinonamid,A64,11749573,-,-,-5.03,log(mol/L),5.03,-log(M),Train,,-,,-,,,,-
BrC1=C(C=CC=C1Br)Br,608-21-9,-,772,"1,2,3-tribromobenzene",A64,11749573,-,-,-5.04,log(mol/L),5.04,-log(M),Train,,-,,-,,,,-
C=CCCCCCCC,124-11-8,-,773,1-Nonene,A64,11749573,-,-,-5.05,log(mol/L),5.05,-log(M),Train,,-,,-,,,,-
CCCCCCCCBr,111-83-1,-,774,1-bromooctane,A64,11749573,-,-,-5.06,log(mol/L),5.06,-log(M),Train,,-,,-,,,,-
OC(CCC(C1=CC=C(C2=CC=CC=C2)C=C1)=O)=O,36330-85-5,-,775,Fenbufen,A64,11749573,-,-,-5.06,log(mol/L),5.06,-log(M),Train,,-,,-,,,,-
COC1=CC=C(C=C1C(NCCC2=CC=C(S(=O)(NC(NC3CCCCC3)=O)=O)C=C2)=O)Cl,10238-21-8,-,776,glyburide,A64,11749573,-,-,-5.09,log(mol/L),5.09,-log(M),Train,,-,,-,,,,-
O=P(SCCCC)(SCCCC)SCCCC,78-48-8,-,777,def,A64,11749573,-,-,-5.14,log(mol/L),5.14,-log(M),Train,,-,,-,,,,-
OC1CCC2(C)C3CC(O)C4(C)C(C(C)CCC(NCC(O)=O)=O)CCC4C3C(O)CC2C1,475-31-0,-,778,glycocholic acid,A64,11749573,-,-,-5.15,log(mol/L),5.15,-log(M),Train,,-,,-,,,,-
NC1=CC=2C=C3C=CC=CC3=CC2C=C1,613-13-8,-,779,2-aminoanthracene,A64,11749573,-,-,-5.17,log(mol/L),5.17,-log(M),Train,,-,,-,,,,-
ClC1(C(Cl)=C(Cl)C(Cl)=C1Cl)Cl,77-47-4,-,780,hexachlorocyclopentadiene,A64,11749573,-,-,-5.18,log(mol/L),5.18,-log(M),Train,,-,,-,,,,-
O=C(OC(C)C)C=C(C)C=CCC(C)CCCC(OC)(C)C,40596-69-8,-,781,methoprene,A64,11749573,-,-,-5.19,log(mol/L),5.19,-log(M),Train,,-,,-,,,,-
O=C1C2=C(C=CC=C2)C(C=3C1=CC=CC3)=O,84-65-1,-,782,anthraquinone,A64,11749573,-,-,-5.19,log(mol/L),5.19,-log(M),Train,,-,,-,,,,-
ClC1=CC=CC(Cl)=C1C2=CC=CC=C2,33146-45-1,-,783,"2,6-pcb",A64,11749573,-,-,-5.21,log(mol/L),5.21,-log(M),Train,,-,,-,,,,-
OC1=CC=C(OC2=C(I)C=C(CC(N)C(O)=O)C=C2I)C=C1I,-,-,784,liothyronine,A64,11749573,-,-,-5.22,log(mol/L),5.22,-log(M),Train,,-,,-,,,,-
CC1=C2CC3=CC=CC=C3C2=CC=C1,1730-37-6,-,785,1-methylfluorene,A64,11749573,-,-,-5.22,log(mol/L),5.22,-log(M),Train,,-,,-,,,,-
CCCCCCCC,111-65-9,-,786,n-octane,A64,11749573,-,-,-5.24,log(mol/L),5.24,-log(M),Train,,-,,-,,,,-
ClC1=CC(Cl)=CC=C1C2=CC=CC=C2,33284-50-3,-,787,"2,4-pcb",A64,11749573,-,-,-5.25,log(mol/L),5.25,-log(M),Train,,-,,-,,,,-
CC(C1(CCC2C3C=C(C4=CC(CCC4(C3CCC12C)C)=O)C)C)=O,977-79-7,-,788,medrogestone,A64,11749573,-,-,-5.27,log(mol/L),5.27,-log(M),Train,,-,,-,,,,-
ClC1=CC=CC=C1C2=CC=CC=C2Cl,13029-08-8,-,789,"2,2?-pcb",A64,11749573,-,-,-5.27,log(mol/L),5.27,-log(M),Train,,-,,-,,,,-
OC1=CC=2CC=C3C(CCC4(C)C3CCC4=O)C2C=C1,474-86-2,-,790,equilin,A64,11749573,-,-,-5.28,log(mol/L),5.28,-log(M),Train,,-,,-,,,,-
ClC1=CC=CC=C1C2=CC=C(Cl)C=C2,34883-43-7,-,791,"2,4?-pcb",A64,11749573,-,-,-5.28,log(mol/L),5.28,-log(M),Train,,-,,-,,,,-
CN(CCCN1C2=CC=CC=C2SC3=C1C=C(C(F)(F)F)C=C3)C,146-54-3,-,792,triflupromazine,A64,11749573,-,-,-5.3,log(mol/L),5.3,-log(M),Train,,-,,-,,,,-
C12=CC=CC=C1OC3=CC=CC=C3O2,262-12-4,-,793,dibenzo-p-dioxine,A64,11749573,-,-,-5.31,log(mol/L),5.31,-log(M),Train,,-,,-,,,,-
O=C(O)CCCCCCCCCCCCC,544-63-8,-,794,tetradecanoic acid,A64,11749573,-,-,-5.33,log(mol/L),5.33,-log(M),Train,,-,,-,,,,-
CC(OC1(C2(C)C(CC1)C3C=C(C)C4=CC(=O)CCC4(C3CC2)C)C(C)=O)=O,595-33-5,-,795,megestrol acetate,A64,11749573,-,-,-5.35,log(mol/L),5.35,-log(M),Train,,-,,-,,,,-
O=C1CCC2(C)C(CCC3C2CCC4(C)C3CCC4OC(CC)=O)=C1,57-85-2,-,796,testosterone propionate,A64,11749573,-,-,-5.37,log(mol/L),5.37,-log(M),Train,,-,,-,,,,-
O=C(OCCCCCCCC)C1=CC=C(N)C=C1,14309-41-2,-,797,octyl-4-aminobenzoate,A64,11749573,-,-,-5.4,log(mol/L),5.4,-log(M),Train,,-,,-,,,,-
C1(C2=NC=3C=CC=CC3C=C2)=NC=4C=CC=CC4C=C1,119-91-5,-,798,biquinoline,A64,11749573,-,-,-5.4,log(mol/L),5.4,-log(M),Train,,-,,-,,,,-
O=C1N(SC(Cl)(Cl)C(Cl)Cl)C(C2CC=CCC12)=O,2939-80-2,-,799,captafol,A64,11749573,-,-,-5.4,log(mol/L),5.4,-log(M),Train,,-,,-,,,,-
CC12CCC3C(C1CCC2O)CCC4CC5SC5CC34C,2363-58-8,-,800,epitiostanol,A64,11749573,-,-,-5.41,log(mol/L),5.41,-log(M),Train,,-,,-,,,,-
ClC=1C2=C(N=CC=N2)C(Cl)=C(Cl)C1Cl,3495-42-9,-,801,chlorquinox,A64,11749573,-,-,-5.43,log(mol/L),5.43,-log(M),Train,,-,,-,,,,-
ClC1=C(OC2=CC=C(N(=O)=O)C=C2)C=CC(Cl)=C1,1836-75-5,-,802,nitrofen,A64,11749573,-,-,-5.46,log(mol/L),5.46,-log(M),Train,,-,,-,,,,-
NC1=C(C(F)(F)F)C=C(N(=O)=O)C(N(CC)CC)=C1N(=O)=O,29091-05-2,-,803,dinitramine,A64,11749573,-,-,-5.47,log(mol/L),5.47,-log(M),Train,,-,,-,,,,-
CN(C=NC1=CC=C(C)C=C1C)C=NC2=CC=C(C)C=C2C,33089-61-1,-,804,amitraz,A64,11749573,-,-,-5.47,log(mol/L),5.47,-log(M),Train,,-,,-,,,,-
CC12C(C(COC(CC(C)(C)C)=O)=O)(O)CCC1C3CCC=4C(C3C(C2)O)(CCC(C4)=O)C,508-96-3,-,805,hydrocortisone tebutate,A64,11749573,-,-,-5.51,log(mol/L),5.51,-log(M),Train,,-,,-,,,,-
FC(F)(F)C1=CC(N(=O)=O)=C(N(CC)CCCC)C(N(=O)=O)=C1,1861-40-1,-,806,benfluralin,A64,11749573,-,-,-5.53,log(mol/L),5.53,-log(M),Train,,-,,-,,,,-
S=P(OCC)(OCC)SCSP(OCC)(OCC)=S,563-12-2,-,807,ethion,A64,11749573,-,-,-5.54,log(mol/L),5.54,-log(M),Train,,-,,-,,,,-
COC1=CC2=C(N(C(C)=C2CC(O)=O)C(C=CC3=CC=CC=C3)=O)C=C1,20168-99-4,-,808,cinmetacin,A64,11749573,-,-,-5.54,log(mol/L),5.54,-log(M),Train,,-,,-,,,,-
O=C(OCC1=CC=CC=C1)C2=CC=CC=C2C(OCCCC)=O,85-68-7,-,809,benzyl butyl phthalate,A64,11749573,-,-,-5.64,log(mol/L),5.64,-log(M),Train,,-,,-,,,,-
ClC12C(Cl)=C(Cl)C(C1(Cl)Cl)(Cl)C3C2C=CC3,3734-48-3,-,810,chlordene,A64,11749573,-,-,-5.64,log(mol/L),5.64,-log(M),Train,,-,,-,,,,-
ClC1=C(Cl)C=C(Cl)C(Cl)=C1Cl,608-93-5,-,811,pentachlorobenzene,A64,11749573,-,-,-5.65,log(mol/L),5.65,-log(M),Train,,-,,-,,,,-
O=C1CCC2(C)C(CCC3C2CCC4(C)C3CCC4(C#C)O)=C1,434-03-7,-,812,ethisterone,A64,11749573,-,-,-5.66,log(mol/L),5.66,-log(M),Train,,-,,-,,,,-
CCCCCCCCCCCCCCCCCC(O)=O,57-11-4,-,813,stearic acid,A64,11749573,-,-,-5.68,log(mol/L),5.68,-log(M),Train,,-,,-,,,,-
CC(OC1=CC(N2N=C(C(C)(C)C)OC2=O)=C(C=C1Cl)Cl)C,19666-30-9,-,814,oxadiazon,A64,11749573,-,-,-5.69,log(mol/L),5.69,-log(M),Train,,-,,-,,,,-
CC12C3CCC4(C(C3CCC1CCCC2)CCC4=O)C,36378-49-1,-,815,androstane-17-one,A64,11749573,-,-,-6.7,log(mol/L),6.7,-log(M),Train,,-,,-,,,,-
S=P(OC)(OC)OC1=CC(Cl)=C(Cl)C=C1Cl,299-84-3,-,816,ronnel,A64,11749573,-,-,-5.72,log(mol/L),5.72,-log(M),Train,,-,,-,,,,-
O=N(C1=C(Cl)C(Cl)=C(Cl)C(Cl)=C1Cl)=O,82-68-8,-,817,quintozene,A64,11749573,-,-,-5.82,log(mol/L),5.82,-log(M),Train,,-,,-,,,,-
C12=C(C=CC=C1)C=3C=CC=C4C3C2=CC=C4,206-44-0,-,818,Fluoranthene,A64,11749573,-,-,-6.0,log(mol/L),6.0,-log(M),Train,,-,,-,,,,-
ClC1=CC(C2=CC(Cl)=CC=C2Cl)=CC=C1,38444-81-4,-,819,"2,3?,5-pcb",A64,11749573,-,-,-6.01,log(mol/L),6.01,-log(M),Train,,-,,-,,,,-
O=C(NC(NC1=CC=C(Cl)C=C1)=O)C2=C(F)C=CC=C2F,35367-38-5,-,820,difluron,A64,11749573,-,-,-6.02,log(mol/L),6.02,-log(M),Train,,-,,-,,,,-
CCCCCCCCCCCCCCO,112-72-1,-,821,myristyl alcohol,A64,11749573,-,-,-6.05,log(mol/L),6.05,-log(M),Train,,-,,-,,,,-
ClC1=CC(Cl)=C(C2=CC=CC=C2)C(Cl)=C1,35693-92-6,-,822,"2,4,6-pcb",A64,11749573,-,-,-6.14,log(mol/L),6.14,-log(M),Train,,-,,-,,,,-
C1=2C=CC=3C=CC=C4C=CC(=CC=C1)C2C43,129-00-0,-,823,pyrene,A64,11749573,-,-,-6.19,log(mol/L),6.19,-log(M),Train,,-,,-,,,,-
NC=1C2=C(C=CC=C2)C3=C(C1)C4=C(C=C3)C=CC=C4,2642-98-0,-,824,6-aminochrysene,A64,11749573,-,-,-6.2,log(mol/L),6.2,-log(M),Train,,-,,-,,,,-
ClC1=CC=C(Cl)C=C1C2=CC=C(Cl)C=C2,16606-02-3,-,825,"2,4?,5-pcb",A64,11749573,-,-,-6.25,log(mol/L),6.25,-log(M),Train,,-,,-,,,,-
ClC1=CC=C(C2=CC=CC(Cl)=C2Cl)C=C1,38444-85-8,-,826,"2,3,4?-pcb",A64,11749573,-,-,-6.26,log(mol/L),6.26,-log(M),Train,,-,,-,,,,-
ClC1=CC(Cl)=C(Cl)C=C1C2=CC=CC=C2,15862-07-4,-,827,"2,4,5-pcb",A64,11749573,-,-,-6.27,log(mol/L),6.27,-log(M),Train,,-,,-,,,,-
ClC12C3C(C4C5OC5C3C4)C(Cl)(C1(Cl)Cl)C(Cl)=C2Cl,60-57-1,-,828,dieldrin,A64,11749573,-,,-6.29,log(mol/L),6.29,-log(M),Train,,-,,-,,,,-
ClC1=CC=CC=C1C2=CC=C(Cl)C(Cl)=C2,38444-86-9,-,829,"2?,3,4-pcb",A64,11749573,-,-,-6.29,log(mol/L),6.29,-log(M),Train,,-,,-,,,,-
S=P(OCC)(OCC)SC(CCl)N1C(C2=CC=CC=C2C1=O)=O,10311-84-9,-,830,dialifos,A64,11749573,-,-,-6.34,log(mol/L),6.34,-log(M),Train,,-,,-,,,,-
C=12C=CC=CC1C=C3C(C=CC=C3)=C2,120-12-7,-,831,Anthracene,A64,11749573,-,-,-6.35,log(mol/L),6.35,-log(M),Train,,-,,-,,,,-
ClC(Cl)=C(C1=CC=C(Cl)C=C1)C2=CC=CC=C2Cl,3424-82-6,-,832,"o,p?-dde",A64,11749573,-,-,-6.36,log(mol/L),6.36,-log(M),Train,,-,,-,,,,-
ClC1=CC(C2=CC=CC=C2)=CC=C1Cl,2974-92-7,-,833,"3,4-pcb",A64,11749573,-,-,-6.39,log(mol/L),6.39,-log(M),Train,,-,,-,,,,-