SMILES,CASRN,EXTERNALID,N,NAME,ARTICLEID,PUBMEDID,PAGE,TABLE,Solubility_log(mol/L),UNIT {Water solubility},"Water solubility {measured, converted}",UNIT {Water solubility}.1,Dataset,Temperature,UNIT {Temperature},Ionic strength,UNIT {Ionic strength},comment (chemical),source,pH,UNIT {pH}
ClC1=CC=CC(=C1Cl)C2=CC=CC(Cl)=C2Cl,-,-,122,"2,2',3,3'-PCB",A170,15154768,-,-,-7.28,log(mol/L),7.28,-log(M),,,-,,-,,,,-
ClC1=CC=C(C(Cl)=C1)C2=C(Cl)C(Cl)=C(Cl)C(Cl)=C2Cl,-,-,123,"2,2',3,4,4',5',6-PCB",A170,15154768,-,-,-7.92,log(mol/L),7.92,-log(M),,,-,,-,,,,-
ClC1=CC=C(Cl)C(=C1)C2=C(Cl)C(Cl)=C(Cl)C(Cl)=C2Cl,-,-,124,"2,2',3,4,5,5',6-PCB",A170,15154768,-,-,-8.94,log(mol/L),8.94,-log(M),,,-,,-,,,,-
ClC1=CC=C(Cl)C(C2=CC(Cl)=C(Cl)C(Cl)=C2Cl)=C1,-,-,125,"2,2',3,4,5,5'-PCB",A170,15154768,-,-,-7.68,log(mol/L),7.68,-log(M),,,-,,-,,,,-
ClC1=CC(Cl)=C(C=C1Cl)C2=CC=CC(Cl)=C2Cl,-,-,126,"2,2',3,4,5-PCB",A170,15154768,-,-,-7.21,log(mol/L),7.21,-log(M),,,-,,-,,,,-
ClC1=CC=C(C(Cl)=C1)C2=C(Cl)C=CC(Cl)=C2Cl,-,-,127,"2,2',3,4,6-PCB",A170,15154768,-,-,-7.43,log(mol/L),7.43,-log(M),,,-,,-,,,,-
ClC1=CC=C(Cl)C(=C1)C2=C(Cl)C(Cl)=CC(Cl)=C2Cl,-,-,128,"2,2',3,5,5',6-PCB",A170,15154768,-,-,-7.42,log(mol/L),7.42,-log(M),,,-,,-,,,,-
ClC1=CC=C(Cl)C(=C1)C2=CC=CC(Cl)=C2Cl,-,-,129,"2,2',3,5'-PCB",A170,15154768,-,-,-6.47,log(mol/L),6.47,-log(M),,,-,,-,,,,-
CC(C)C(C)(C)C,-,-,130,"2,2,3-Trimethylbutane",A170,15154768,-,-,-4.36,log(mol/L),4.36,-log(M),,,-,,-,,,,-
ClC1=CC(Cl)=C(C=C1Cl)C2=CC(Cl)=C(Cl)C=C2Cl,-,-,131,"2,2',4,4',5,5'-PCB",A170,15154768,-,-,-8.56,log(mol/L),8.56,-log(M),,,-,,-,,,,-
ClC1=CC(Cl)=C(C(Cl)=C1)C2=C(Cl)C=C(Cl)C=C2Cl,-,-,132,"2,2',4,4',6,6'-PCB",A170,15154768,-,-,-8.71,log(mol/L),8.71,-log(M),,,-,,-,,,,-
ClC1=CC=C(C(Cl)=C1)C2=CC(Cl)=CC=C2Cl,-,-,133,"2,2',4,5'-PCB",A170,15154768,-,-,-6.57,log(mol/L),6.57,-log(M),,,-,,-,,,,-
ClC1=CC(Cl)=C(C(Cl)=C1)C2=C(Cl)C=CC=C2Cl,-,-,134,"2,2,4,6,6'-PCB",A170,15154768,-,-,-7.32,log(mol/L),7.32,-log(M),,,-,,-,,,,-
CC(C)CC(C)(C)C,-,-,135,"2,2,4-Trimethylpentane",A170,15154768,-,-,-4.74,log(mol/L),4.74,-log(M),,,-,,-,,,,-
CC(C)CCC(C)(C)C,-,-,136,"2,2,5-Trimethylhexane",A170,15154768,-,-,-5.05,log(mol/L),5.05,-log(M),,,-,,-,,,,-
ClC1=CC=CC(Cl)=C1C2=C(Cl)C=CC=C2Cl,-,-,137,"2,2',6,6'-PCB",A170,15154768,-,-,-7.39,log(mol/L),7.39,-log(M),,,-,,-,,,,-
CCC(C)(C)CO,-,-,138,"2,2-dimethyl-1-butanol",A170,15154768,-,-,-1.04,log(mol/L),1.04,-log(M),,,-,,-,,,,-
CCC(C)(C)C,-,-,139,"2,2-Dimethylbutane",A170,15154768,-,-,-3.55,log(mol/L),3.55,-log(M),,,-,,-,,,,-
CCCC(C)(C)C,-,-,140,"2,2-Dimethylpentane",A170,15154768,-,-,-4.36,log(mol/L),4.36,-log(M),,,-,,-,,,,-
CCCC(C)(C)CO,-,-,141,"2,2-Dimethylpentanol",A170,15154768,-,-,-1.52,log(mol/L),1.52,-log(M),,,-,,-,,,,-
CC(C)(C)CO,-,-,142,"2,2-Dimethylpropanol",A170,15154768,-,-,-0.4,log(mol/L),0.4,-log(M),,,-,,-,,,,-
ClC1=CC=CC=C1C2=CC=CC=C2Cl,-,-,143,"2,2'-PCB",A170,15154768,-,-,-5.27,log(mol/L),5.27,-log(M),,,-,,-,,,,-
ClC1=CC=C(C=C1Cl)C2=CC(Cl)=C(Cl)C(Cl)=C2Cl,-,-,144,"2,3,3',4,4',5-PCB",A170,15154768,-,-,-7.82,log(mol/L),7.82,-log(M),,,-,,-,,,,-
ClC1=CC=C(C(Cl)=C1Cl)C2=C(Cl)C=C(Cl)C(Cl)=C2Cl,-,-,145,"2,3,3',4,4'6-PCB",A170,15154768,-,-,-7.66,log(mol/L),7.66,-log(M),,,-,,-,,,,-
ClC1=CC=C(C(Cl)=C1)C2=CC(Cl)=C(Cl)C(Cl)=C2Cl,-,-,146,"2,3',4,4',5-PCB",A170,15154768,-,-,-7.39,log(mol/L),7.39,-log(M),,,-,,-,,,,-
ClC1=CC=C(C(Cl)=C1)C2=CC=C(Cl)C(Cl)=C2Cl,-,-,147,"2,3',4,4'-PCB",A170,15154768,-,-,-7.8,log(mol/L),7.8,-log(M),,,-,,-,,,,-
ClC1=C(Cl)C(Cl)=C(C2=CC=CC=C2)C(Cl)=C1Cl,-,-,148,"2,3,4,5,6-pcb",A170,15154768,-,-,-7.92,log(mol/L),7.92,-log(M),,,-,,-,,,,-
ClC1=CC=C(Cl)C(=C1)C2=CC=C(Cl)C(Cl)=C2,-,-,149,"2,3',4',5-PCB",A170,15154768,-,-,-7.25,log(mol/L),7.25,-log(M),,,-,,-,,,,-
OC1=CC(Cl)=C(Cl)C(Cl)=C1Cl,-,-,150,"2,3,4,5-Tetrachlorophenol",A170,15154768,-,-,-3.15,log(mol/L),3.15,-log(M),,,-,,-,,,,-
OC1=C(Cl)C=C(Cl)C(Cl)=C1Cl,-,-,151,"2,3,4,6-Tetrachlorophenol",A170,15154768,-,-,-3.1,log(mol/L),3.1,-log(M),,,-,,-,,,,-
ClC1=CC=C(C=C1)C2=CC=CC(Cl)=C2Cl,-,-,152,"2',3,4-PCB",A170,15154768,-,-,-6.29,log(mol/L),6.29,-log(M),,,-,,-,,,,-
ClC1=CC=C(C=C1)C2=CC=CC(Cl)=C2Cl,-,-,153,"2,3,4'-PCB",A170,15154768,-,-,-6.26,log(mol/L),6.26,-log(M),,,-,,-,,,,-
OC1=CC=C(Cl)C(Cl)=C1Cl,-,-,154,"2,3,4-Trichlorophenol",A170,15154768,-,-,-2.67,log(mol/L),2.67,-log(M),,,-,,-,,,,-
CC(C)C(C)C(C)C,-,-,155,"2,3,4-Trimethylpentane",A170,15154768,-,-,-4.8,log(mol/L),4.8,-log(M),,,-,,-,,,,-
OC1=C(Cl)C(Cl)=CC(Cl)=C1Cl,-,-,156,"2,3,5,6-Tetrachlorophenol",A170,15154768,-,-,-3.37,log(mol/L),3.37,-log(M),,,-,,-,,,,-
ClC1=CC=CC(=C1)C2=CC(Cl)=CC=C2Cl,-,-,157,"2,3',5-PCB",A170,15154768,-,-,-6.01,log(mol/L),6.01,-log(M),,,-,,-,,,,-
OC1=CC(Cl)=CC(Cl)=C1Cl,-,-,158,"2,3,5-Trichlorophenol",A170,15154768,-,-,-2.67,log(mol/L),2.67,-log(M),,,-,,-,,,,-
OC1=C(Cl)C=CC(Cl)=C1Cl,-,-,159,"2,3,6-Trichlorophenol",A170,15154768,-,-,-2.64,log(mol/L),2.64,-log(M),,,-,,-,,,,-
O=N(=O)C1=C(Cl)C(Cl)=CC=C1,-,-,160,"2,3-Dichloronitrobenzene",A170,15154768,-,-,-3.48,log(mol/L),3.48,-log(M),,,-,,-,,,,-
OC1=CC=CC(Cl)=C1Cl,-,-,161,"2,3-Dichlorophenol",A170,15154768,-,-,-1.3,log(mol/L),1.3,-log(M),,,-,,-,,,,-
CC(=C)C(=C)C,-,-,162,"2,3-Dimethyl-1,3-Butadiene",A170,15154768,-,-,-2.4,log(mol/L),2.4,-log(M),,,-,,-,,,,-
CC(C)C(C)C,-,-,163,"2,3-Dimethylbutane",A170,15154768,-,-,-3.65,log(mol/L),3.65,-log(M),,,-,,-,,,,-
CC1=CC=2C=CC=CC2C=C1C,-,-,164,"2,3-dimethylnaphthalene",A170,15154768,-,-,-4.72,log(mol/L),4.72,-log(M),,,-,,-,,,,-
CCC(C)C(C)C,-,-,165,"2,3-Dimethylpentane",A170,15154768,-,-,-4.28,log(mol/L),4.28,-log(M),,,-,,-,,,,-
CC1=CC=CN=C1C,-,-,166,"2,3-dimethylpyridine",A170,15154768,-,-,0.38,log(mol/L),-0.38,-log(M),,,-,,-,,,,-
ClC1=CC=C(C=C1)C2=CC(Cl)=CC=C2Cl,-,-,167,"2,4,5-pcb",A170,15154768,-,-,-6.27,log(mol/L),6.27,-log(M),,,-,,-,,,,-
ClC1=CC=C(C=C1)C2=CC(Cl)=CC=C2Cl,-,-,168,"2,4',5-PCB",A170,15154768,-,-,-6.25,log(mol/L),6.25,-log(M),,,-,,-,,,,-
OC1=CC(Cl)=C(Cl)C=C1Cl,-,-,169,"2,4,5-trichlorophenol",A170,15154768,-,-,-2.21,log(mol/L),2.21,-log(M),,,-,,-,,,,-
ClC1=CC=C(C=C1)C2=C(Cl)C=CC=C2Cl,-,-,170,"2,4,6-pcb",A170,15154768,-,-,-6.14,log(mol/L),6.14,-log(M),,,-,,-,,,,-
OC1=C(Cl)C=C(Cl)C=C1Cl,-,-,171,"2,4,6-trichlorophenol",A170,15154768,-,-,-2.34,log(mol/L),2.34,-log(M),,,-,,-,,,,-
CC1=CC(C)=C(O)C(C)=C1,-,-,172,"2,4,6-Trimethylphenol",A170,15154768,-,-,-2.05,log(mol/L),2.05,-log(M),,,-,,-,,,,-
CC1=C(C=C(C=C1N(=O)=O)N(=O)=O)N(=O)=O,-,-,173,"2,4,6-Trinitrotoluene",A170,15154768,-,-,-3.22,log(mol/L),3.22,-log(M),,,-,,-,,,,-
OC1=CC=C(Cl)C=C1Cl,-,-,174,"2,4-dichlorophenol",A170,15154768,-,-,-1.55,log(mol/L),1.55,-log(M),,,-,,-,,,,-
CC(C)CC(C)(C)O,-,-,175,"2,4-dimethyl-2-pentanol",A170,15154768,-,-,-0.92,log(mol/L),0.92,-log(M),,,-,,-,,,,-
CC(C)C(O)C(C)C,-,-,176,"2,4-dimethyl-3-pentanol",A170,15154768,-,-,-1.22,log(mol/L),1.22,-log(M),,,-,,-,,,,-
CC(C)C(=O)C(C)C,-,-,177,"2,4-Dimethyl-3-pentanone",A170,15154768,-,-,-1.3,log(mol/L),1.3,-log(M),,,-,,-,,,,-
CC(C)CC(C)C,-,-,178,"2,4-dimethylpentane",A170,15154768,-,-,-4.26,log(mol/L),4.26,-log(M),,,-,,-,,,,-
CC1=CC=C(O)C(C)=C1,-,-,179,"2,4-Dimethylphenol",A170,15154768,-,-,-1.19,log(mol/L),1.19,-log(M),,,-,,-,,,,-
CC1=CC=NC(C)=C1,-,-,180,"2,4-dimethylpyridine",A170,15154768,-,-,0.38,log(mol/L),-0.38,-log(M),,,-,,-,,,,-
CC1=CC=C(C=C1N(=O)=O)N(=O)=O,-,-,181,"2,4-Dinitrotoluene",A170,15154768,-,-,-2.82,log(mol/L),2.82,-log(M),,,-,,-,,,,-
ClC1=CC=C(C=C1)C2=CC=CC=C2Cl,-,-,182,"2,4'-PCB",A170,15154768,-,-,-5.28,log(mol/L),5.28,-log(M),,,-,,-,,,,-
ClC1=CC=C(C=C1)C2=CC=CC=C2Cl,-,-,183,"2,4-pcb",A170,15154768,-,-,-5.25,log(mol/L),5.25,-log(M),,,-,,-,,,,-
OC1=C(Cl)C=CC=C1Cl,-,-,184,"2,6-Dichlorophenol",A170,15154768,-,-,-1.79,log(mol/L),1.79,-log(M),,,-,,-,,,,-
CC1=CC=C2C=C(C)C=CC2=C1,-,-,185,"2,6-dimethylnaphthalene",A170,15154768,-,-,-4.89,log(mol/L),4.89,-log(M),,,-,,-,,,,-
CC1=CC=CC(C)=C1O,-,-,186,"2,6-Dimethylphenol",A170,15154768,-,-,-1.29,log(mol/L),1.29,-log(M),,,-,,-,,,,-
CC1=CC=CC(C)=N1,-,-,187,"2,6-dimethylpyridine",A170,15154768,-,-,0.45,log(mol/L),-0.45,-log(M),,,-,,-,,,,-
CC1=C(C=CC=C1N(=O)=O)N(=O)=O,-,-,188,"2,6-Dinitrotoluene",A170,15154768,-,-,-3.0,log(mol/L),3.0,-log(M),,,-,,-,,,,-
ClC1=CC=CC(Cl)=C1C2=CC=CC=C2,-,-,189,"2,6-pcb",A170,15154768,-,-,-5.21,log(mol/L),5.21,-log(M),,,-,,-,,,,-
C1=C(C)C=C2N=C(C)C=CC2=C1,-,-,190,"2,7-dimethylquinoline",A170,15154768,-,-,-1.94,log(mol/L),1.94,-log(M),,,-,,-,,,,-
NC1=CC=C2C=C3C=CC=CC3=CC2=C1,-,-,191,2-aminoanthracene,A170,15154768,-,-,-5.17,log(mol/L),5.17,-log(M),,,-,,-,,,,-
C1=C(Br)C=CC=2C=CC=CC12,-,-,192,2-bromonaphthalene,A170,15154768,-,,-4.4,log(mol/L),4.4,-log(M),,,-,,-,,,,-
BrC1=CC=C2C=CC=CC2=C1,-,-,193,2-Bromonapthalene,A170,15154768,-,,-4.41,log(mol/L),4.41,-log(M),,,-,,-,,,,-
CC(C)Br,-,-,194,2-bromopropane,A170,15154768,-,-,-1.59,log(mol/L),1.59,-log(M),,,-,,-,,,,-
CC1=CC=CC=C1Br,-,-,195,2-Bromotoluene,A170,15154768,-,-,-2.23,log(mol/L),2.23,-log(M),,,-,,-,,,,-
CCC(=O)C,-,-,196,2-butanone,A170,15154768,-,-,0.52,log(mol/L),-0.52,-log(M),,,-,,-,,,,-
CC=CC=O,-,-,197,2-butenal,A170,15154768,-,,0.32,log(mol/L),-0.32,-log(M),,,-,,-,,,,-
CCCCOCCO,-,-,198,2-butoxyethanol,A170,15154768,-,-,-0.42,log(mol/L),0.42,-log(M),,,-,,-,,,,-
CCC(C)(C)Cl,-,-,199,2-chloro-2-methylbutane,A170,15154768,-,-,-2.51,log(mol/L),2.51,-log(M),,,-,,-,,,,-
COC1=CC=CC=C1Cl,-,-,200,2-Chloroanisole,A170,15154768,-,-,-2.46,log(mol/L),2.46,-log(M),,,-,,-,,,,-
ClC1=CC=CC=C1C2=CC=CC=C2,-,-,201,2-chlorobiphenyl,A170,15154768,-,-,-4.54,log(mol/L),4.54,-log(M),,,-,,-,,,,-
CCC(C)Cl,-,-,202,2-chlorobutane,A170,15154768,-,-,-1.96,log(mol/L),1.96,-log(M),,,-,,-,,,,-
ClC1=CC=C2C=CC=CC2=C1,-,-,203,2-Chloronapthalene,A170,15154768,-,-,-4.14,log(mol/L),4.14,-log(M),,,-,,-,,,,-
OC1=CC=CC=C1Cl,-,-,204,2-chlorophenol,A170,15154768,-,-,-1.06,log(mol/L),1.06,-log(M),,,-,,-,,,,-
CC(C)Cl,-,-,205,2-chloropropane,A170,15154768,-,-,-1.41,log(mol/L),1.41,-log(M),,,-,,-,,,,-
CC1=CC=CC=C1Cl,-,-,206,2-Chlorotoluene,A170,15154768,-,-,-3.52,log(mol/L),3.52,-log(M),,,-,,-,,,,-
NC(=NC#N)N,-,-,207,2-cyanoguanidine,A170,15154768,-,-,-0.31,log(mol/L),0.31,-log(M),,,-,,-,,,,-
CCCCCCCCC(=O)C,-,-,208,2-decanone,A170,15154768,-,-,-3.3,log(mol/L),3.3,-log(M),,,-,,-,,,,-
CCC1=CC=CC=N1,-,-,209,2-Ethyl pyridine,A170,15154768,-,-,0.51,log(mol/L),-0.51,-log(M),,,-,,-,,,,-
CCC(CC)CO,-,-,210,2-ethyl-1-butanol,A170,15154768,-,-,-1.17,log(mol/L),1.17,-log(M),,,-,,-,,,,-
CCCCC(CC)CO,-,-,211,2-ethyl-1-hexanol,A170,15154768,-,-,-2.11,log(mol/L),2.11,-log(M),,,-,,-,,,,-
CCCC=C(CC)C=O,-,-,212,2-Ethyl-2-hexanal,A170,15154768,-,-,-2.46,log(mol/L),2.46,-log(M),,,-,,-,,,,-
C(CC)(CC)C=O,-,-,213,2-Ethylbutanal,A170,15154768,-,-,-1.52,log(mol/L),1.52,-log(M),,,-,,-,,,,-
CCCCC(CC)C=O,-,-,214,2-Ethylhexanal,A170,15154768,-,-,-2.13,log(mol/L),2.13,-log(M),,,-,,-,,,,-
CCC1=CC=C2C=CC=CC2=C1,-,-,215,2-ethylnaphthalene,A170,15154768,-,-,-4.29,log(mol/L),4.29,-log(M),,,-,,-,,,,-
CCC1=CC=CC=C1C,-,-,216,2-Ethyltoluene,A170,15154768,-,-,-3.21,log(mol/L),3.21,-log(M),,,-,,-,,,,-
CCCCCC(C)O,-,-,217,2-heptanol,A170,15154768,-,-,-1.55,log(mol/L),1.55,-log(M),,,-,,-,,,,-
CCCCCC(=O)C,-,-,218,2-Heptanone,A170,15154768,-,-,-1.45,log(mol/L),1.45,-log(M),,,-,,-,,,,-
CCCCC(C)O,-,-,219,2-hexanol,A170,15154768,-,-,-0.89,log(mol/L),0.89,-log(M),,,-,,-,,,,-
CCCCC(=O)C,-,-,220,2-Hexanone,A170,15154768,-,-,-0.8,log(mol/L),0.8,-log(M),,,-,,-,,,,-
OC=1N=CC2=NC=CN=C2N1,-,-,221,2-hydroxypteridine,A170,15154768,-,,-1.947,log(mol/L),1.947,-log(M),,,-,,-,,,,-
OC1=CC=CC=N1,-,-,222,2-hydroxypyridine,A170,15154768,-,-,1.02,log(mol/L),-1.02,-log(M),,,-,,-,,,,-
CC(C)I,-,-,223,2-iodopropane,A170,15154768,-,-,-2.09,log(mol/L),2.09,-log(M),,,-,,-,,,,-
CC(C)C1=CC=CC=C1C,-,-,224,2-Isopropyltoluene,A170,15154768,-,-,-3.76,log(mol/L),3.76,-log(M),,,-,,-,,,,-
O(C1=NC2=NC=CN=C2C=N1)C,-,-,225,2-methoxypteridine,A170,15154768,-,,-1.11,log(mol/L),1.11,-log(M),,,-,,-,,,,-
CC=C(C)C,-,-,226,2-Methy-2-Butene,A170,15154768,-,-,-2.56,log(mol/L),2.56,-log(M),,,-,,-,,,,-
C(C=C)(C)=C,-,-,227,"2-methyl-1,3-butadiene",A170,15154768,-,-,-2.03,log(mol/L),2.03,-log(M),,,-,,-,,,,-
CCC(=C)C,-,-,228,2-Methyl-1-Butene,A170,15154768,-,-,-2.73,log(mol/L),2.73,-log(M),,,-,,-,,,,-
CCCC(=C)C,-,-,229,2-Methyl-1-Pentene,A170,15154768,-,-,-3.03,log(mol/L),3.03,-log(M),,,-,,-,,,,-
CCCCCC(C)(C)O,-,-,230,2-methyl-2-heptanol,A170,15154768,-,-,-1.72,log(mol/L),1.72,-log(M),,,-,,-,,,,-
CCCCC(C)(C)O,-,-,231,2-methyl-2-hexanol,A170,15154768,-,-,-1.08,log(mol/L),1.08,-log(M),,,-,,-,,,,-
CCCC(C)(C)O,-,-,232,2-methyl-2-pentanol,A170,15154768,-,-,-0.49,log(mol/L),0.49,-log(M),,,-,,-,,,,-
CCC(O)C(C)C,-,-,233,2-methyl-3-pentanol,A170,15154768,-,-,-0.7,log(mol/L),0.7,-log(M),,,-,,-,,,,-
CC1=CC=C2C=C3C=CC=CC3=CC2=C1,-,-,234,2-methylanthracene,A170,15154768,-,-,-6.96,log(mol/L),6.96,-log(M),,,-,,-,,,,-
CCC(C)(C)O,-,-,235,2-Methylbutan-2-ol,A170,15154768,-,-,0.15,log(mol/L),-0.15,-log(M),,,-,,-,,,,-
CCC(C)C,-,-,236,2-Methylbutane,A170,15154768,-,-,-3.18,log(mol/L),3.18,-log(M),,,-,,-,,,,-
CCC(C)CO,-,-,237,2-Methylbutanol,A170,15154768,-,-,-0.47,log(mol/L),0.47,-log(M),,,-,,-,,,,-
CCCCCC(C)C,-,-,238,2-Methylheptane,A170,15154768,-,-,-5.08,log(mol/L),5.08,-log(M),,,-,,-,,,,-
CC1=CC=C2C=CC=CC2=C1,-,-,239,2-Methylnapthalene,A170,15154768,-,-,-3.77,log(mol/L),3.77,-log(M),,,-,,-,,,,-
CCCC(C)C,-,-,240,2-methylpentane,A170,15154768,-,-,-3.74,log(mol/L),3.74,-log(M),,,-,,-,,,,-
CCCC(C)CO,-,-,241,2-Methylpentanol,A170,15154768,-,-,-1.11,log(mol/L),1.11,-log(M),,,-,,-,,,,-
CC1=CC=C2C(C=CC=3C=CC=CC32)=C1,-,-,242,2-Methylphenanthrene,A170,15154768,-,-,-5.84,log(mol/L),5.84,-log(M),,,-,,-,,,,-
CC1=CC=CC=C1O,-,-,243,2-Methylphenol,A170,15154768,-,-,-0.62,log(mol/L),0.62,-log(M),,,-,,-,,,,-
CC(C)CO,-,-,244,2-Methylpropan-1-ol,A170,15154768,-,-,0.1,log(mol/L),-0.1,-log(M),,,-,,-,,,,-
CC(C)C,-,-,245,2-Methylpropane,A170,15154768,-,-,-2.55,log(mol/L),2.55,-log(M),,,-,,-,,,,-
CC(=C)C,-,-,246,2-Methylpropene,A170,15154768,-,-,-2.33,log(mol/L),2.33,-log(M),,,-,,-,,,,-
N=1C2=NC=CN=C2C=NC1C,-,-,247,2-methylpteridine,A170,15154768,-,,-0.12,log(mol/L),0.12,-log(M),,,-,,-,,,,-
CC1CCCO1,-,-,248,2-Methyltetrahydrofurane,A170,15154768,-,-,0.11,log(mol/L),-0.11,-log(M),,,-,,-,,,,-
OC1=CC=C2C=CC=CC2=C1,-,-,249,2-Napthol,A170,15154768,-,-,-2.28,log(mol/L),2.28,-log(M),,,-,,-,,,,-
CC(C)N(=O)=O,-,-,250,2-nitropropane,A170,15154768,-,-,-0.62,log(mol/L),0.62,-log(M),,,-,,-,,,,-
CCCCCCCC(C)O,-,-,251,2-Nonanol,A170,15154768,-,-,-2.74,log(mol/L),2.74,-log(M),,,-,,-,,,,-
CCCCCCCC(=O)C,-,-,252,2-nonanone,A170,15154768,-,-,-2.58,log(mol/L),2.58,-log(M),,,-,,-,,,,-
CCCCCCC(C)O,-,-,253,2-octanol,A170,15154768,-,-,-2.09,log(mol/L),2.09,-log(M),,,-,,-,,,,-
CCCCCCC(=O)C,-,-,254,2-octanone,A170,15154768,-,-,-2.05,log(mol/L),2.05,-log(M),,,-,,-,,,,-
CCCC(C)O,-,-,255,2-pentanol,A170,15154768,-,-,-0.29,log(mol/L),0.29,-log(M),,,-,,-,,,,-
CCCC(=O)C,-,-,256,2-pentanone,A170,15154768,-,-,-0.19,log(mol/L),0.19,-log(M),,,-,,-,,,,-
OCCOC1=CC=CC=C1,-,-,257,2-phenoxyethanol,A170,15154768,-,-,-0.7,log(mol/L),0.7,-log(M),,,-,,-,,,,-
CC(C)O,-,-,258,2-Propanol,A170,15154768,-,-,0.43,log(mol/L),-0.43,-log(M),,,-,,-,,,,-
O=C1CCCN1,-,-,259,2-pyrrolidone,A170,15154768,-,-,1.07,log(mol/L),-1.07,-log(M),,,-,,-,,,,-
CCCCCCCCCC(C)O,-,-,260,2-Undecanol,A170,15154768,-,-,-2.94,log(mol/L),2.94,-log(M),,,-,,-,,,,-
CC(C)(C)CCO,-,-,261,"3,3-dimethyl-1-butanol",A170,15154768,-,-,-0.5,log(mol/L),0.5,-log(M),,,-,,-,,,,-
CC(O)C(C)(C)C,-,-,262,"3,3-dimethyl-2-butanol",A170,15154768,-,-,-0.62,log(mol/L),0.62,-log(M),,,-,,-,,,,-
CC(C(C)(C)C)=O,-,-,263,"3,3-Dimethyl-2-butanone",A170,15154768,-,-,-0.72,log(mol/L),0.72,-log(M),,,-,,-,,,,-
CCC(C)(C)CC,-,-,264,"3,3-Dimethylpentane",A170,15154768,-,-,-4.23,log(mol/L),4.23,-log(M),,,-,,-,,,,-
O=N(=O)C1=CC(Cl)=C(Cl)C=C1,-,-,265,"3,4-Dichloronitrobenzene",A170,15154768,-,-,-3.2,log(mol/L),3.2,-log(M),,,-,,-,,,,-
OC1=CC=C(Cl)C(Cl)=C1,-,-,266,"3,4-Dichlorophenol",A170,15154768,-,-,-1.25,log(mol/L),1.25,-log(M),,,-,,-,,,,-
CC1=CC=C(O)C=C1C,-,-,267,"3,4-Dimethylphenol",A170,15154768,-,-,-1.38,log(mol/L),1.38,-log(M),,,-,,-,,,,-
CC1=CC=NC=C1C,-,-,268,"3,4-dimethylpyridine",A170,15154768,-,-,0.36,log(mol/L),-0.36,-log(M),,,-,,-,,,,-
ClC1=CC=C(C=C1Cl)C2=CC=CC=C2,-,-,269,"3,4-pcb",A170,15154768,-,-,-6.39,log(mol/L),6.39,-log(M),,,-,,-,,,,-
OC1=CC(Cl)=CC(Cl)=C1,-,-,270,"3,5-Dichlorophenol",A170,15154768,-,-,-1.34,log(mol/L),1.34,-log(M),,,-,,-,,,,-
CC1=CC(=CC(=C1)O)C,-,-,271,"3,5-Dimethylphenol",A170,15154768,-,-,-1.4,log(mol/L),1.4,-log(M),,,-,,-,,,,-
CC1=CN=CC(C)=C1,-,-,272,"3,5-dimethylpyridine",A170,15154768,-,-,0.38,log(mol/L),-0.38,-log(M),,,-,,-,,,,-
O=C1N(COC(=O)CCC)C(=O)C(N1)(C2=CC=CC=C2)C3=CC=CC=C3,-,-,273,3-Butanoyloxymethylphenytoin,A170,15154768,-,-,-5.071,log(mol/L),5.071,-log(M),,,-,,-,,,,-
COC1=CC=CC(Cl)=C1,-,-,274,3-Chloroanisole,A170,15154768,-,-,-2.78,log(mol/L),2.78,-log(M),,,-,,-,,,,-
C1=C(Cl)C=CC=C1C2=CC=CC=C2,-,-,275,3-chlorobiphenyl,A170,15154768,-,-,-4.88,log(mol/L),4.88,-log(M),,,-,,-,,,,-
OC1=CC=CC(Cl)=C1,-,-,276,3-Chlorophenol,A170,15154768,-,-,-0.7,log(mol/L),0.7,-log(M),,,-,,-,,,,-
ClCCC#N,-,-,277,3-chloropropionitrile,A170,15154768,-,-,-0.29,log(mol/L),0.29,-log(M),,,-,,-,,,,-
O=C1N(COC(=O)C)C(=O)C(N1)(C2=CC=CC=C2)C3=CC=CC=C3,-,-,278,3-Ethanoyloxymethylphenytoin,A170,15154768,-,-,-4.47,log(mol/L),4.47,-log(M),,,-,,-,,,,-
CCC(O)(CC)CC,-,-,279,3-ethyl-3-pentanol,A170,15154768,-,-,-0.85,log(mol/L),0.85,-log(M),,,-,,-,,,,-
CCCCC(O)CC,-,-,280,3-heptanol,A170,15154768,-,-,-1.47,log(mol/L),1.47,-log(M),,,-,,-,,,,-
O=C1N(COC(=O)CCCCCC)C(=O)C(N1)(C2=CC=CC=C2)C3=CC=CC=C3,-,-,281,3-Heptanoyloxymethylphenytoin,A170,15154768,-,-,-6.301,log(mol/L),6.301,-log(M),,,-,,-,,,,-
CCCC(O)CC,-,-,282,3-hexanol,A170,15154768,-,-,-0.8,log(mol/L),0.8,-log(M),,,-,,-,,,,-
CCCC(=O)CC,-,-,283,3-Hexanone,A170,15154768,-,-,-0.83,log(mol/L),0.83,-log(M),,,-,,-,,,,-
O=C1N(COC(=O)CCCCC)C(=O)C(N1)(C2=CC=CC=C2)C3=CC=CC=C3,-,-,284,3-Hexanoyloxymethylphenyltoin,A170,15154768,-,-,-5.886,log(mol/L),5.886,-log(M),,,-,,-,,,,-
CCC#CCC,-,-,285,3-Hexyne,A170,15154768,-,-,-1.99,log(mol/L),1.99,-log(M),,,-,,-,,,,-
CC(C)C=C,-,-,286,3-Methyl-1-Butene,A170,15154768,-,-,-2.73,log(mol/L),2.73,-log(M),,,-,,-,,,,-
CC(C)C(C)O,-,-,287,3-methyl-2-butanol,A170,15154768,-,-,-0.18,log(mol/L),0.18,-log(M),,,-,,-,,,,-
CC(C)C(=O)C,-,-,288,3-Methyl-2-butanone,A170,15154768,-,-,-0.12,log(mol/L),0.12,-log(M),,,-,,-,,,,-
CCC(C)CCO,-,-,289,3-methyl-2-pentanol,A170,15154768,-,-,-0.72,log(mol/L),0.72,-log(M),,,-,,-,,,,-
CCC(C)CCO,-,-,290,3-methyl-2-pentanol,A170,15154768,-,-,-0.71,log(mol/L),0.71,-log(M),,,-,,-,,,,-
CCC(C)C(=O)C,-,-,291,3-Methyl-2-pentanone,A170,15154768,-,-,-0.67,log(mol/L),0.67,-log(M),,,-,,-,,,,-
CCCCC(C)(O)CC,-,-,292,3-methyl-3-heptanol,A170,15154768,-,-,-1.6,log(mol/L),1.6,-log(M),,,-,,-,,,,-
CCCC(C)(O)CC,-,-,293,3-methyl-3-hexanol,A170,15154768,-,-,-0.98,log(mol/L),0.98,-log(M),,,-,,-,,,,-
CCC(C)(O)CC,-,-,294,3-methyl-3-pentanol,A170,15154768,-,-,-0.36,log(mol/L),0.36,-log(M),,,-,,-,,,,-
CC(C)CCO,-,-,295,3-Methylbutan-1-ol,A170,15154768,-,-,-0.51,log(mol/L),0.51,-log(M),,,-,,-,,,,-
C1=CC(C)=CC2=C1C=3C=C4C=CC=C5CCC(=C45)C3C=C2,-,-,296,3-methylcholanthrene,A170,15154768,-,-,-7.92,log(mol/L),7.92,-log(M),,,-,,-,,,,-
CCCCC(C)CC,-,-,297,3-Methylheptane,A170,15154768,-,-,-5.16,log(mol/L),5.16,-log(M),,,-,,-,,,,-
CC1=CNC=2C=CC=CC12,-,-,298,3-methylindole,A170,15154768,-,-,-2.42,log(mol/L),2.42,-log(M),,,-,,-,,,,-
CCC(C)CC,-,-,299,3-Methylpentane,A170,15154768,-,-,-3.68,log(mol/L),3.68,-log(M),,,-,,-,,,,-
CC1=CC=CC(O)=C1,-,-,300,3-Methylphenol,A170,15154768,-,-,-0.68,log(mol/L),0.68,-log(M),,,-,,-,,,,-
CCCCCC(O)CC,-,-,301,3-Octanol,A170,15154768,-,-,-1.98,log(mol/L),1.98,-log(M),,,-,,-,,,,-
O=C1N(COC(=O)CCCCCCC)C(=O)C(N1)(C2=CC=CC=C2)C3=CC=CC=C3,-,-,302,3-Octanoyloxymethylphenytoin,A170,15154768,-,-,-6.523,log(mol/L),6.523,-log(M),,,-,,-,,,,-
CCC(O)CC,-,-,303,3-pentanol,A170,15154768,-,-,-0.24,log(mol/L),0.24,-log(M),,,-,,-,,,,-
CCC(=O)CC,-,-,304,3-Pentanone,A170,15154768,-,-,-0.28,log(mol/L),0.28,-log(M),,,-,,-,,,,-
O=C1N(COC(=O)CCCC)C(=O)C(N1)(C2=CC=CC=C2)C3=CC=CC=C3,-,-,305,3-Pentanoyloxymethylphenytoin,A170,15154768,-,-,-4.678,log(mol/L),4.678,-log(M),,,-,,-,,,,-