SMILES,CASRN,EXTERNALID,N,NAME,ARTICLEID,PUBMEDID,PAGE,TABLE,Solubility_log(mol/L),UNIT {Water solubility},"Water solubility {measured, converted}",UNIT {Water solubility}.1,Dataset,Temperature,UNIT {Temperature},Ionic strength,UNIT {Ionic strength},comment (chemical),source,pH,UNIT {pH}
COC1=CC=CC=C1O,90-05-1,-,1031,guaiacol,A64,11749573,-,-,-1.96,log(mol/L),1.96,-log(M),Test 1,,-,,-,,,,-
C(Cl)=C(Cl)Cl,79-01-6,-,1032,trichloroethylene,A64,11749573,-,-,-1.96,log(mol/L),1.96,-log(M),Test 1,,-,,-,,,,-
FC1=CC=C(F)C=C1,540-36-3,-,1033,p-difluorobenzene,A64,11749573,-,-,-1.97,log(mol/L),1.97,-log(M),Test 1,,-,,-,,,,-
CC(C)=CCCC(C)(O)C=C,78-70-6,-,1034,linalool,A64,11749573,-,-,-1.99,log(mol/L),1.99,-log(M),Test 1,,-,,-,,,,-
O=S(NC(N)=N)(C1=CC=C(C=C1)N)=O,57-67-0,-,1035,sulfaguanidine,A64,11749573,-,-,-1.99,log(mol/L),1.99,-log(M),Test 1,,-,,-,,,,-
O=C1CC2CCC1(C2(C)C)C,76-22-2,-,1036,camphor,A64,11749573,-,-,-1.99,log(mol/L),1.99,-log(M),Test 1,,-,,-,,,,-
CCCCCC(OC)=O,106-70-7,-,1037,methyl capronate,A64,11749573,-,-,-2.0,log(mol/L),2.0,-log(M),Test 1,,-,,-,,,,-
CC(CCl)C,513-36-0,-,1038,1-chloro-2-methylpropane,A64,11749573,-,-,-2.0,log(mol/L),2.0,-log(M),Test 1,,-,,-,,,,-
FC1=CC(F)=CC=C1,372-18-9,-,1039,m-difluorobenzene,A64,11749573,-,-,-2.0,log(mol/L),2.0,-log(M),Test 1,,-,,-,,,,-
C=C(C=C)C,78-79-5,-,1040,"2-methyl-1,3-butadiene",A64,11749573,-,-,-2.03,log(mol/L),2.03,-log(M),Test 1,,-,,-,,,,-
OC1=C(OC)C=C(C(O)=O)C=C1,121-34-6,-,1041,vanillic acid,A64,11749573,-,-,-2.05,log(mol/L),2.05,-log(M),Test 1,,-,,-,,,,-
CC(C)=CCCC(C)=CC=O,5392-40-5,-,1042,citral,A64,11749573,-,-,-2.06,log(mol/L),2.06,-log(M),Test 1,,-,,-,,,,-
O=C1NC(C(C(N1)=O)(CC=C)CC=C)=O,52-43-7,-,1043,allobarbital,A64,11749573,-,-,-2.06,log(mol/L),2.06,-log(M),Test 1,,-,,-,,,,-
CC1=CC=CC2=C1N3C=NN=C3S2,41814-78-2,-,1044,tricyclazole,A64,11749573,-,-,-2.07,log(mol/L),2.07,-log(M),Test 1,,-,,-,,,,-
BrCCCBr,109-64-8,-,1045,"1,3-dibromopropane",A64,11749573,-,-,-2.08,log(mol/L),2.08,-log(M),Test 1,,-,,-,,,,-
CNC(ON=C1C2C(C#N)CC(C2)C1Cl)=O,15271-41-7,-,1046,tranid,A64,11749573,-,-,-2.08,log(mol/L),2.08,-log(M),Test 1,,-,,-,,,,-
CCSCC1=CC=CC=C1OC(NC)=O,29973-13-5,-,1047,ethiofencarb,A64,11749573,-,-,-2.09,log(mol/L),2.09,-log(M),Test 1,,-,,-,,,,-
NC1=NC=C(CC2=CC(OC)=C(OCCOC)C(OC)=C2)C(N)=N1,53808-87-0,-,1048,tetroxoprim,A64,11749573,-,-,-2.1,log(mol/L),2.1,-log(M),Test 1,,-,,-,,,,-
C1=CCCC1,142-29-0,-,1049,cyclopentene,A64,11749573,-,-,-2.1,log(mol/L),2.1,-log(M),Test 1,,-,,-,,,,-
OC(C(CO)NC(C(Cl)Cl)=O)C1=CC=C(N(=O)=O)C=C1,56-75-7,-,1050,Chloramphenicol,A64,11749573,-,-,-2.11,log(mol/L),2.11,-log(M),Test 1,,-,,-,,,,-
S=C1NC(CCC)=CC(N1)=O,51-52-5,-,1051,propylthiouracil,A64,11749573,-,-,-2.15,log(mol/L),2.15,-log(M),Test 1,,-,,-,,,,-
CC(Br)CBr,78-75-1,-,1052,"1,2-dibromopropane",A64,11749573,-,-,-2.15,log(mol/L),2.15,-log(M),Test 1,,-,,-,,,,-
C=12C=CC=CC1NN=C2,271-44-3,-,1053,indazole,A64,11749573,-,-,-2.16,log(mol/L),2.16,-log(M),Test 1,,-,,-,,,,-
O=C1CC(C(C)=C)CCC1C,619-02-3,-,1054,l-dihydrocarvone,A64,11749573,-,-,-2.18,log(mol/L),2.18,-log(M),Test 1,,-,,-,,,,-
CCCCS,109-79-5,-,1055,butanethiol,A64,11749573,-,-,-2.18,log(mol/L),2.18,-log(M),Test 1,,-,,-,,,,-
ClC1=CC(Cl)=C(O)C=C1Cl,95-95-4,-,1056,"2,4,5-trichlorophenol",A64,11749573,-,-,-2.21,log(mol/L),2.21,-log(M),Test 1,,-,,-,,,,-
OC1(C2(C(NC(NC2=O)=O)=O)O)C(NC(NC1=O)=O)=O,76-24-4,-,1057,Alloxantin(Uroxine),A64,11749573,-,-,-1.99,log(mol/L),1.99,-log(M),Test 1,,-,,-,,,,-
O=C(C1=CC=CC=C1)NC(C2=CC=CC=C2)=O,614-28-8,-,1059,N-Benzoylbenzamide,A64,11749573,-,-,-2.27,log(mol/L),2.27,-log(M),Test 1,,-,,-,,,,-
CC1=CC(C)=NC(NS(=O)(C2=CC=C(N)C=C2)=O)=N1,57-68-1,-,1060,Sulfamethazine,A64,11749573,-,-,-2.27,log(mol/L),2.27,-log(M),Test 1,,-,,-,,,,-
CCCN(CCC)CCC,102-69-2,-,1061,tripropylamine,A64,11749573,-,-,-2.28,log(mol/L),2.28,-log(M),Test 1,,-,,-,,,,-
O=C(C1=C(C2=CC=CC=C2C(O)=O)C=CC=C1)O,482-05-3,-,1062,diphenic acid,A64,11749573,-,-,-2.28,log(mol/L),2.28,-log(M),Test 1,,-,,-,,,,-
O=C(O)COC1=CC=C(Cl)C=C1,122-88-3,-,1063,4-chlorophenoxyacetic acid,A64,11749573,-,-,-2.29,log(mol/L),2.29,-log(M),Test 1,,-,,-,,,,-
C12=C(N=CN1)N=CNC2=O,68-94-0,-,1064,hypoxanthine,A64,11749573,-,-,-2.29,log(mol/L),2.29,-log(M),Test 1,,-,,-,,,,-
BrC1CCCCC1,108-85-0,-,1065,bromocyclohexane,A64,11749573,-,-,-2.3,log(mol/L),2.3,-log(M),Test 1,,-,,-,,,,-
NC1=CC=C(C=C1)CC2=CC=C(N)C=C2,101-77-9,-,1066,bis-(p-aminophenyl)-methane,A64,11749573,-,-,-2.3,log(mol/L),2.3,-log(M),Test 1,,-,,-,,,,-
C(CCCCC)(=O)OCC,123-66-0,-,1067,ethyl capronate,A64,11749573,-,-,-2.31,log(mol/L),2.31,-log(M),Test 1,,-,,-,,,,-
O=N(C1=CC=CC=C1C)=O,88-72-2,-,1068,2-nitrotoluene,A64,11749573,-,-,-2.33,log(mol/L),2.33,-log(M),Test 1,,-,,-,,,,-
CCOC1=CC=CC=C1,103-73-1,-,1069,phenetole,A64,11749573,-,-,-2.33,log(mol/L),2.33,-log(M),Test 1,,-,,-,,,,-
CNC(OC1=CC(N=CN(C)C)=CC=C1)=O,22259-30-9,-,1070,formetanate,A64,11749573,-,-,-2.34,log(mol/L),2.34,-log(M),Test 1,,-,,-,,,,-
CNC(OC1=CC=C(C(C)=C1)N(C)C)=O,2032-59-9,-,1071,aminocarb,A64,11749573,-,-,-2.36,log(mol/L),2.36,-log(M),Test 1,,-,,-,,,,-
CC(NC1=NN=C(S(N)(=O)=O)S1)=O,59-66-5,-,1072,acetazoleamide,A64,11749573,-,-,-2.36,log(mol/L),2.36,-log(M),Test 1,,-,,-,,,,-
NC1=CC=C(N(=O)=O)C=C1,100-01-6,-,1073,4-nitroaniline,A64,11749573,-,-,-2.37,log(mol/L),2.37,-log(M),Test 1,,-,,-,,,,-
FC1=C(F)C=C(F)C(F)=C1,327-54-8,-,1074,"1,2,4,5-tetrafluorobenzene",A64,11749573,-,-,-2.38,log(mol/L),2.38,-log(M),Test 1,,-,,-,,,,-
CC1=CSC=C1,616-44-4,-,1075,3-methylthiophene,A64,11749573,-,-,-2.39,log(mol/L),2.39,-log(M),Test 1,,-,,-,,,,-
CCCCCCCCO,111-87-5,-,1076,1-octanol,A64,11749573,-,-,-2.39,log(mol/L),2.39,-log(M),Test 1,,-,,-,,,,-
COC=1C=2OC=CC2C(=C3C1OC(C)=CC3=O)OC,82-02-0,-,1077,khellin,A64,11749573,-,-,-2.4,log(mol/L),2.4,-log(M),Test 1,,-,,-,,,,-
CC(C)(C1=CC=C(O)C=C1)C,98-54-4,-,1078,p-t-butylphenol,A64,11749573,-,-,-2.41,log(mol/L),2.41,-log(M),Test 1,,-,,-,,,,-
OC=1C=2N=CC=CC2C=CC1,148-24-3,-,1079,8-quinolinol,A64,11749573,-,-,-2.42,log(mol/L),2.42,-log(M),Test 1,,-,,-,,,,-
CC(OCCCCCC)=O,142-92-7,-,1080,hexyl acetate,A64,11749573,-,-,-2.46,log(mol/L),2.46,-log(M),Test 1,,-,,-,,,,-
CC1CCC(C(C)C)C(C1)=O,14073-97-3,-,1081,l-menthone,A64,11749573,-,-,-2.49,log(mol/L),2.49,-log(M),Test 1,,-,,-,,,,-
CC1=CC=C(N(=O)=O)C=C1,99-99-0,-,1082,4-nitrotoluene,A64,11749573,-,-,-2.49,log(mol/L),2.49,-log(M),Test 1,,-,,-,,,,-
CC(C)(Cl)CC,594-36-5,-,1083,2-chloro-2-methylbutane,A64,11749573,-,-,-2.51,log(mol/L),2.51,-log(M),Test 1,,-,,-,,,,-
OC(C1=CC=CC=C1)CC2=CC=CC=C2,614-29-9,-,1084,"dl-1,2-diphenylethanol",A64,11749573,-,-,-2.52,log(mol/L),2.52,-log(M),Test 1,,-,,-,,,,-
CC(C1CCC(C)CC1O)C,89-78-1,-,1085,menthol,A64,11749573,-,-,-2.53,log(mol/L),2.53,-log(M),Test 1,,-,,-,,,,-
ClC(Cl)=C(Cl)Cl,127-18-4,-,1086,tetrachloroethylene,A64,11749573,-,-,-2.54,log(mol/L),2.54,-log(M),Test 1,,-,,-,,,,-
BrC1=CC=CC=C1,108-86-1,-,1087,bromobenzene,A64,11749573,-,-,-2.55,log(mol/L),2.55,-log(M),Test 1,,-,,-,,,,-
OC(C1=CC=CC=C1)C2=CC=CC=C2,91-01-0,-,1088,benzhydrol,A64,11749573,-,-,-2.55,log(mol/L),2.55,-log(M),Test 1,,-,,-,,,,-
O=C(N(OC)C)NC1=CC=C(Cl)C=C1,1746-81-2,-,1089,monolinuron,A64,11749573,-,-,-2.57,log(mol/L),2.57,-log(M),Test 1,,-,,-,,,,-
NC(CC)CC1=CNC=2C=CC=CC21,2235-90-7,-,1090,etryptamine,A64,11749573,-,-,-2.57,log(mol/L),2.57,-log(M),Test 1,,-,,-,,,,-
NC(CC1=CC=C(O)C=C1)C(O)=O,60-18-4,-,1091,l-tyrosine,A64,11749573,-,-,-2.57,log(mol/L),2.57,-log(M),Test 1,,-,,-,,,,-
OC1=C(C=CC(O)=C1)CCCCCC,136-77-6,-,1092,4-hexylresorcinol,A64,11749573,-,-,-2.59,log(mol/L),2.59,-log(M),Test 1,,-,,-,,,,-
CCCCC(CCCC)=O,502-56-7,-,1093,5-nonanone,A64,11749573,-,-,-2.59,log(mol/L),2.59,-log(M),Test 1,,-,,-,,,,-
CC1(C(N(Cl)C(=O)N1Cl)=O)C,118-52-5,-,1094,"1,3-dichloro-5,5-dimethylhydantoin",A64,11749573,-,-,-2.6,log(mol/L),2.6,-log(M),Test 1,,-,,-,,,,-
CC1=CC=C(C(O)=O)C=C1,99-94-5,-,1095,p-toluic acid,A64,11749573,-,-,-2.6,log(mol/L),2.6,-log(M),Test 1,,-,,-,,,,-
O=C1NC(C2=CC=CC=C21)=O,85-41-6,-,1096,phthalimide,A64,11749573,-,-,-2.61,log(mol/L),2.61,-log(M),Test 1,,-,,-,,,,-
OC(C1CC2CCN1CC2CC)C3=CC=NC4=C3C=CC=C4,485-65-4,-,1097,hydrocinchonine,A64,11749573,-,-,-2.63,log(mol/L),2.63,-log(M),Test 1,,-,,-,,,,-
ClC(CC)CC,616-20-6,-,1098,3-chloropentane,A64,11749573,-,-,-2.63,log(mol/L),2.63,-log(M),Test 1,,-,,-,,,,-
O=C1NC(C(C(N1)=O)(CC)C2=CC3CCC(C2)C3)=O,3625-25-0,-,1099,reposal,A64,11749573,-,-,-2.64,log(mol/L),2.64,-log(M),Test 1,,-,,-,,,,-
O=C1NCNC(C1(C2=CC=CC=C2)CC)=O,125-33-7,-,1100,Primidone,A64,11749573,-,-,-2.64,log(mol/L),2.64,-log(M),Test 1,,-,,-,,,,-
O=C(C1=CC=CC=C1)OCCC,2315-68-6,-,1101,propyl benzoate,A64,11749573,-,-,-2.67,log(mol/L),2.67,-log(M),Test 1,,-,,-,,,,-
ClC(Cl)C1NS(C2=CC(=C(C=C2N1)Cl)S(N)(=O)=O)(=O)=O,133-67-5,-,1102,trichlormethiazide,A64,11749573,-,-,-2.68,log(mol/L),2.68,-log(M),Test 1,,-,,-,,,,-
BrC(CC)(CC)C(NC(N)=O)=O,77-65-6,-,1103,carbromal,A64,11749573,-,-,-2.68,log(mol/L),2.68,-log(M),Test 1,,-,,-,,,,-
OC12CC=3C(=C1C4=C(OC2)C(=C(C=C4)O)O)C=C(O)C(C3)=O,475-25-2,-,1104,hematein,A64,11749573,-,-,-2.7,log(mol/L),2.7,-log(M),Test 1,,-,,-,,,,-
O=S(NC1=CC=CC=N1)(C2=CC=C(N)C=C2)=O,144-83-2,-,1105,sulfapyridine,A64,11749573,-,-,-2.7,log(mol/L),2.7,-log(M),Test 1,,-,,-,,,,-
S=C1C=NC2=CN=CN=C2N1,81451-15-2,-,1106,7-mercaptopteridine,A64,11749573,-,-,-2.71,log(mol/L),2.71,-log(M),Test 1,,-,,-,,,,-
CCCCCCCCN,111-86-4,-,1107,n-octylamine,A64,11749573,-,-,-2.75,log(mol/L),2.75,-log(M),Test 1,,-,,-,,,,-
CCC1=CC=CC=C1,100-41-4,-,1108,ethylbenzene,A64,11749573,-,-,-2.77,log(mol/L),2.77,-log(M),Test 1,,-,,-,,,,-
CC1=CC=C(C=C1)C,106-42-3,-,1109,p-xylene,A64,11749573,-,-,-2.77,log(mol/L),2.77,-log(M),Test 1,,-,,-,,,,-
O=C1C2=C(C=CC(O)=C2O)C(C3=CC=CC=C31)=O,72-48-0,-,1110,alizarin,A64,11749573,-,-,-2.78,log(mol/L),2.78,-log(M),Test 1,,-,,-,,,,-
IC1=CC=CC=C1,591-50-4,-,1111,iodobenzene,A64,11749573,-,-,-2.78,log(mol/L),2.78,-log(M),Test 1,,-,,-,,,,-
OC(C1=CC=C(N(=O)=O)C=C1)=O,62-23-7,-,1112,4-nitrobenzoic acid,A64,11749573,-,-,-2.8,log(mol/L),2.8,-log(M),Test 1,,-,,-,,,,-
CC1=CN=C(NS(=O)(C2=CC=C(C=C2)N)=O)N=C1,599-88-2,-,1113,sulfaperine,A64,11749573,-,-,-2.82,log(mol/L),2.82,-log(M),Test 1,,-,,-,,,,-
CC(C1=CC=C(O)C=C1)(C)C2=CC=C(O)C=C2,80-05-7,-,1114,diphenylolpropane,A64,11749573,-,-,-2.82,log(mol/L),2.82,-log(M),Test 1,,-,,-,,,,-
C=CC1=CC=CC=C1,100-42-5,-,1115,styrene,A64,11749573,-,-,-2.82,log(mol/L),2.82,-log(M),Test 1,,-,,-,,,,-
OC(C1=CC=CC=C1)C(C2=CC=CC=C2)=O,579-44-2,-,1116,benzoin,A64,11749573,-,-,-2.85,log(mol/L),2.85,-log(M),Test 1,,-,,-,,,,-
ClC1=CC(C)=C(C=C1)N=CN(C)C,6164-98-3,-,1117,chlordimenform,A64,11749573,-,-,-2.86,log(mol/L),2.86,-log(M),Test 1,,-,,-,,,,-
CNC1=CC=CC=C1C(O)=O,119-68-6,-,1118,n-methylanthranilic acid,A64,11749573,-,-,-2.88,log(mol/L),2.88,-log(M),Test 1,,-,,-,,,,-
C1(NNC2=CC=CC=C2)=CC=CC=C1,122-66-7,-,1119,hydrazobenzene,A64,11749573,-,-,-2.92,log(mol/L),2.92,-log(M),Test 1,,-,,-,,,,-
O=C(O)COC1=CC(Cl)=C(Cl)C=C1Cl,93-76-5,-,1120,"2,4,5-t",A64,11749573,-,-,-2.96,log(mol/L),2.96,-log(M),Test 1,,-,,-,,,,-
O=C1CCC2(C)C(CCC3C2C(O)CC4(C)C3CCC4(O)C(CO)=O)=C1,50-23-7,-,1121,Hydrocortisone,A64,11749573,-,-,-2.97,log(mol/L),2.97,-log(M),Test 1,,-,,-,,,,-
CCN1C=C(C(C2=C1N=C(N3CCNCC3)N=C2)=O)C(O)=O,51940-44-4,-,1122,pipedemic acid,A64,11749573,-,-,-2.98,log(mol/L),2.98,-log(M),Test 1,,-,,-,,,,-
O=C1C=CC2(C)C(C(C)CC3C2C(O)CC4(C)C3CCC4(O)C(CO)=O)=C1,83-43-2,-,1123,6-methylprednisolone,A64,11749573,-,-,-2.99,log(mol/L),2.99,-log(M),Test 1,,-,,-,,,,-
O=S(NC(NCCC)=O)(C1=CC=C(Cl)C=C1)=O,94-20-2,-,1124,chlorpropamide,A64,11749573,-,-,-3.03,log(mol/L),3.03,-log(M),Test 1,,-,,-,,,,-
O=C1C(C)=CC(C=2C1=CC=CC2)=O,58-27-5,-,1125,menadione,A64,11749573,-,-,-3.03,log(mol/L),3.03,-log(M),Test 1,,-,,-,,,,-
ClC(F)(F)C(Cl)(Cl)F,76-13-1,-,1126,"1,1,2-trichlorotrifluoroethane",A64,11749573,-,-,-3.04,log(mol/L),3.04,-log(M),Test 1,,-,,-,,,,-
ClC1=CC(Cl)=CC=C1,541-73-1,-,1127,"1,3-Dichlorobenzene",A64,11749573,-,-,-3.04,log(mol/L),3.04,-log(M),Test 1,,-,,-,,,,-
C12=CC=CC=C1CCC2,496-11-7,-,1128,indane,A64,11749573,-,-,-3.04,log(mol/L),3.04,-log(M),Test 1,,-,,-,,,,-
CC(NC1=CC=C(Br)C=C1)=O,103-88-8,-,1129,4-bromoacetanilide,A64,11749573,-,-,-3.08,log(mol/L),3.08,-log(M),Test 1,,-,,-,,,,-
CC1=CC=C(Cl)C=C1,106-43-4,-,1130,p-chlorotoluene,A64,11749573,-,-,-3.08,log(mol/L),3.08,-log(M),Test 1,,-,,-,,,,-
O=C(O)CC1=C(Cl)C=CC(Cl)=C1Cl,85-34-7,-,1131,chlorfenac,A64,11749573,-,-,-3.08,log(mol/L),3.08,-log(M),Test 1,,-,,-,,,,-
C1CCCCC1,110-82-7,-,1132,Cyclohexane,A64,11749573,-,-,-3.1,log(mol/L),3.1,-log(M),Test 1,,-,,-,,,,-
O=C(C1=CC=CC=C1)C2=CC=CC=C2,119-61-9,-,1133,benzophenone,A64,11749573,-,-,-3.12,log(mol/L),3.12,-log(M),Test 1,,-,,-,,,,-
O=C1N(C2=CC=CC=C2)N=CC(N)=C1Br,3042-84-0,-,1134,brompyrazone,A64,11749573,-,-,-3.12,log(mol/L),3.12,-log(M),Test 1,,-,,-,,,,-
O=C(C1=CC=CC=C1O)OCCC(C)C,87-20-7,-,1135,isoamyl salicylate,A64,11749573,-,-,-3.16,log(mol/L),3.16,-log(M),Test 1,,-,,-,,,,-
CCCCCCCCC=O,124-19-6,-,1136,nonanal,A64,11749573,-,-,-3.17,log(mol/L),3.17,-log(M),Test 1,,-,,-,,,,-
BrC1=CC=C(C)C=C1,106-38-7,-,1137,p-bromotoluene,A64,11749573,-,-,-3.19,log(mol/L),3.19,-log(M),Test 1,,-,,-,,,,-
BrC1=CC=CC=C1Cl,694-80-4,-,1138,1-bromo-2-chlorobenzene,A64,11749573,-,-,-3.19,log(mol/L),3.19,-log(M),Test 1,,-,,-,,,,-
CC1CC=CC=CC=CC=CC(OC2OC(C)C(O)C(N)C2O)CC3C(C(O)=O)C(O)CC(O3)(O)CC(O)CC4OC4C=CC(O1)=O,7681-93-8,-,1139,natamycin,A64,11749573,-,-,-3.21,log(mol/L),3.21,-log(M),Test 1,,-,,-,,,,-
O=C1C=CC2(C)C(CCC3C2C(O)CC4(C)C3CCC4(O)C(CO)=O)=C1,50-24-8,-,1140,Prednisolone,A64,11749573,-,-,-3.21,log(mol/L),3.21,-log(M),Test 1,,-,,-,,,,-
O=C1NCCN1C2=NC=C(N(=O)=O)S2,61-57-4,-,1141,niridazole,A64,11749573,-,-,-3.22,log(mol/L),3.22,-log(M),Test 1,,-,,-,,,,-
CC(C)CC=C,691-37-2,-,1142,4-methyl-1-pentene,A64,11749573,-,-,-3.24,log(mol/L),3.24,-log(M),Test 1,,-,,-,,,,-
ClC1=CC=C(Cl)C=C1,106-46-7,-,1143,"1,4-dichlorobenzene",A64,11749573,-,-,-3.27,log(mol/L),3.27,-log(M),Test 1,,-,,-,,,,-
CC(CCC1C(N(C2=CC=CC=C2)N(C3=CC=CC=C3)C1=O)=O)=O,853-34-9,-,1144,kebuzone,A64,11749573,-,-,-3.27,log(mol/L),3.27,-log(M),Test 1,,-,,-,,,,-
OC1=C2C3=C(C=C1)CC4C5C3(C(O2)C(C=C5)O)CCN4C,57-27-2,-,1145,Morphine,A64,11749573,-,-,-3.28,log(mol/L),3.28,-log(M),Test 1,,-,,-,,,,-
CCC1NC(C2=CC(S(N)(=O)=O)=C(C=C2N1)Cl)=O,73-49-4,-,1146,quinethazone,A64,11749573,-,-,-3.29,log(mol/L),3.29,-log(M),Test 1,,-,,-,,,,-
CCCCCCCCOC(N)=O,2029-64-3,-,1147,n-octyl carbamate,A64,11749573,-,-,-3.3,log(mol/L),3.3,-log(M),Test 1,,-,,-,,,,-
O=C(SCCC)N(CCCC)CC,1114-71-2,-,1148,pedulate,A64,11749573,-,-,-3.35,log(mol/L),3.35,-log(M),Test 1,,-,,-,,,,-
CC(C1=CC(N(=O)=O)=CC(N(=O)=O)=C1O)CC,88-85-7,-,1149,dinoseb,A64,11749573,-,-,-3.38,log(mol/L),3.38,-log(M),Test 1,,-,,-,,,,-
O=C(OC(C)C)NC1=CC=CC(Cl)=C1,101-21-3,-,1150,chloropham,A64,11749573,-,-,-3.38,log(mol/L),3.38,-log(M),Test 1,,-,,-,,,,-
O=C(OCC)CCCCCCC,106-32-1,-,1151,ethyl caprylate,A64,11749573,-,-,-3.39,log(mol/L),3.39,-log(M),Test 1,,-,,-,,,,-
O=C(SCC)N(C1CCCCC1)CC,1134-23-2,-,1152,cycloate,A64,11749573,-,-,-3.4,log(mol/L),3.4,-log(M),Test 1,,-,,-,,,,-
O=C(N1CCCCC1)C=CC=CC2=CC=3OCOC3C=C2,94-62-2,-,1153,piperine,A64,11749573,-,-,-3.46,log(mol/L),3.46,-log(M),Test 1,,-,,-,,,,-
IC1=C(NC(I)=C1I)I,87-58-1,-,1154,"2,3,4,5-tetraiodpyrrol",A64,11749573,-,-,-3.46,log(mol/L),3.46,-log(M),Test 1,,-,,-,,,,-
BrC1=CC(Br)=CC=C1,108-36-1,-,1155,"1,3-dibromobenzene",A64,11749573,-,-,-3.54,log(mol/L),3.54,-log(M),Test 1,,-,,-,,,,-
CC(C)C1=CC=C(NC(N(C)C)=O)C=C1,34123-59-6,-,1156,isoproturon,A64,11749573,-,-,-3.54,log(mol/L),3.54,-log(M),Test 1,,-,,-,,,,-
O=C(O)CCCCCCCCCC,112-37-8,-,1157,undedecanoic acid,A64,11749573,-,-,-3.55,log(mol/L),3.55,-log(M),Test 1,,-,,-,,,,-
OC1CC2CCC3C4CCC(C4(CC(C3C2(CC1)C)O)C)=O,514-17-0,-,1158,hydroxyisoandrosterone,A64,11749573,-,-,-3.59,log(mol/L),3.59,-log(M),Test 1,,-,,-,,,,-
OC1=C(O)C=C(C=C1)C2CC(C3=C(O)C=C(O)C=C3O2)=O,552-58-9,-,1159,eriodictyol,A64,11749573,-,-,-3.62,log(mol/L),3.62,-log(M),Test 1,,-,,-,,,,-
COC1=C2OC(=O)C=CC2=CC3=C1OC=C3,298-81-7,-,1160,methoxsalen,A64,11749573,-,-,-3.66,log(mol/L),3.66,-log(M),Test 1,,-,,-,,,,-
C1=CC=C2OC(=O)C(C(C(=O)OCC)C3=C(O)C4=CC=CC=C4OC3=O)=C(O)C2=C1,548-00-5,-,1161,ethyl biscoumacetate,A64,11749573,-,-,-3.66,log(mol/L),3.66,-log(M),Test 1,,-,,-,,,,-
O=C(C1=CC(S(N)(=O)=O)=C(Cl)C=C1NCC2=CC=CO2)O,54-31-9,-,1162,Furosemide,A64,11749573,-,-,-3.66,log(mol/L),3.66,-log(M),Test 1,,-,,-,,,,-
CC(C1=CC=CC=C1)(C)C,98-06-6,-,1163,t-Butylbenzene,A64,11749573,-,-,-3.66,log(mol/L),3.66,-log(M),Test 1,,-,,-,,,,-
C1=2C=CC=CC1=NC3=C(C=CC=C3)C2,260-94-6,-,1164,acridine,A64,11749573,-,-,-3.67,log(mol/L),3.67,-log(M),Test 1,,-,,-,,,,-
CCC(C)CC,96-14-0,-,1165,3-Methylpentane,A64,11749573,-,-,-3.68,log(mol/L),3.68,-log(M),Test 1,,-,,-,,,,-
O=C(SCC)N(CC(C)C)CC(C)C,2008-41-5,-,1166,butylate,A64,11749573,-,-,-3.68,log(mol/L),3.68,-log(M),Test 1,,-,,-,,,,-
S=P(OC)(OC)OC1=CC=C(N(=O)=O)C=C1,298-00-0,-,1167,parathion methyl,A64,11749573,-,-,-3.68,log(mol/L),3.68,-log(M),Test 1,,-,,-,,,,-
NC1=CC=C(C2=NC=3C=CC(C)=CC3S2)C=C1,92-36-4,-,1168,2-(4-aminophenyl)-6-methyl-benzothiazole,A64,11749573,-,-,-3.68,log(mol/L),3.68,-log(M),Test 1,,-,,-,,,,-
CCCCOC1=CC(C(NCCN(CC)CC)=O)=C2C=CC=CC2=N1,85-79-0,-,1169,dibucaine,A64,11749573,-,-,-3.7,log(mol/L),3.7,-log(M),Test 1,,-,,-,,,,-
CC=1C=2C=CC=CC2C=CC1,90-12-0,-,1170,1-methylnaphthalene,A64,11749573,-,-,-3.7,log(mol/L),3.7,-log(M),Test 1,,-,,-,,,,-
O=S(NC1=NN=C(C(C)(C)C)S1)(C2=CC=C(C=C2)N)=O,535-65-9,-,1171,glybuthiazole,A64,11749573,-,-,-3.74,log(mol/L),3.74,-log(M),Test 1,,-,,-,,,,-
O=C1CCC2(C)C(CCC3C2CCC4(C)C3CCC4C(CO)=O)=C1,64-85-7,-,1172,deoxycorticosterone,A64,11749573,-,-,-3.75,log(mol/L),3.75,-log(M),Test 1,,-,,-,,,,-
ClC1=NC(C(Cl)(Cl)Cl)=CC=C1,1929-82-4,-,1173,nitrapyrin,A64,11749573,-,-,-3.76,log(mol/L),3.76,-log(M),Test 1,,-,,-,,,,-
CC(C1=CC=C(C)C=C1)C,99-87-6,-,1174,p-isopropyltoluene,A64,11749573,-,-,-3.77,log(mol/L),3.77,-log(M),Test 1,,-,,-,,,,-
FC12C(C3C(C(O)(C(C3)C)C(=O)CO)(CC1O)C)CCC=4C2(C)C=CC(=O)C4,378-44-9,-,1175,betamethasone,A64,11749573,-,,-3.77,log(mol/L),3.77,-log(M),Test 1,,-,,-,,,,-
CC1=C(C)C(NC2=C(C(O)=O)C=CC=C2)=CC=C1,61-68-7,-,1176,mefenamic acid,A64,11749573,-,-,-3.78,log(mol/L),3.78,-log(M),Test 1,,-,,-,,,,-
O=C1CN=C(C2=CC=CC=C2)C3=CC(N(=O)=O)=CC=C3N1,146-22-5,-,1177,Nitrazepam,A64,11749573,-,-,-3.8,log(mol/L),3.8,-log(M),Test 1,,-,,-,,,,-
O=C(OCC)CCCCCCCC,123-29-5,-,1178,ethyl nonanoate,A64,11749573,-,-,-3.8,log(mol/L),3.8,-log(M),Test 1,,-,,-,,,,-
CC12C3CCC(C(C)C)=CC3=CCC1C(CCC2)(C)C(O)=O,514-10-3,-,1179,abietic acid,A64,11749573,-,-,-3.8,log(mol/L),3.8,-log(M),Test 1,,-,,-,,,,-
CC1=CC(S(=O)(C2=CC=CC=C2)=O)=CC=C1NS(=O)(C(F)(F)F)=O,37924-13-3,-,1180,perfluidone,A64,11749573,-,-,-3.8,log(mol/L),3.8,-log(M),Test 1,,-,,-,,,,-
CCCCC=CC,14686-13-6,-,1181,trans-2-heptene,A64,11749573,-,-,-3.82,log(mol/L),3.82,-log(M),Test 1,,-,,-,,,,-
CCCCCC,110-54-3,-,1182,n-hexane,A64,11749573,-,-,-3.84,log(mol/L),3.84,-log(M),Test 1,,-,,-,,,,-
OC1C2C(C3C(C1)(C(CC3)C(=O)CO)C=O)CCC=4C2(CCC(=O)C4)C,52-39-1,-,1183,aldosterone,A64,11749573,-,,-3.85,log(mol/L),3.85,-log(M),Test 1,,-,,-,,,,-
CC1CCCCC1,108-87-2,-,1184,Methylcyclohexane,A64,11749573,-,-,-3.85,log(mol/L),3.85,-log(M),Test 1,,-,,-,,,,-
COC(=O)NC1=NC=2C=CC(=CC2N1)C(=O)C3=CC=CC=C3,31431-39-7,-,1185,mebendazole,A64,11749573,-,-,-3.88,log(mol/L),3.88,-log(M),Test 1,,-,,-,,,,-
CC(CC(C1=CC=CC=C1)C=2C(=O)OC=3C(C2O)=CC=CC3)=O,81-81-2,-,1186,Warfarin,A64,11749573,-,-,-3.89,log(mol/L),3.89,-log(M),Test 1,,-,,-,,,,-
S=C(SSC(N(C)C)=S)N(C)C,137-26-8,-,1187,thiram,A64,11749573,-,-,-3.9,log(mol/L),3.9,-log(M),Test 1,,-,,-,,,,-
CC(N(C(NC1=CC=C(Cl)C=C1)=O)C)C#C,3766-60-7,-,1188,buturon,A64,11749573,-,-,-3.9,log(mol/L),3.9,-log(M),Test 1,,-,,-,,,,-
CN1C2=CC=CC=C2SC3=C1C=C(CC(O)=O)C=C3,13993-65-2,-,1189,metiazinic acid,A64,11749573,-,-,-3.94,log(mol/L),3.94,-log(M),Test 1,,-,,-,,,,-
OC1CCC2(C)C(CCC3C2CC(O)C4(C)C3CCC4C(C)CCC(O)=O)C1,83-44-3,-,1190,deoxycholic acid,A64,11749573,-,-,-3.95,log(mol/L),3.95,-log(M),Test 1,,-,,-,,,,-
C1(OC2=CC=CC=C2)=CC=CC=C1,101-84-8,-,1191,diphenyl ether,A64,11749573,-,-,-3.96,log(mol/L),3.96,-log(M),Test 1,,-,,-,,,,-
CCCCCCCCl,629-06-1,-,1192,1-chloroheptane,A64,11749573,-,-,-3.99,log(mol/L),3.99,-log(M),Test 1,,-,,-,,,,-