SMILES,CASRN,EXTERNALID,N,NAME,ARTICLEID,PUBMEDID,PAGE,TABLE,Solubility_log(mol/L),UNIT {Water solubility},"Water solubility {measured, converted}",UNIT {Water solubility}.1,Dataset,Temperature,UNIT {Temperature},Ionic strength,UNIT {Ionic strength},comment (chemical),source,pH,UNIT {pH}
O=C1N(COC(=O)CC)C(=O)C(N1)(C2=CC=CC=C2)C3=CC=CC=C3,-,-,306,3-Propanoyloxymethylphenytoin,A170,15154768,-,-,-4.907,log(mol/L),4.907,-log(M),,,-,,-,,,,-
ClC1=CC=C(C2=CC=C(Cl)C=C2)C=C1,-,-,307,"4,4'-PCB",A170,15154768,-,-,-6.56,log(mol/L),6.56,-log(M),,,-,,-,,,,-
OC1=CC=C(Br)C=C1,-,-,308,4-bromophenol,A170,15154768,-,-,-1.09,log(mol/L),1.09,-log(M),,,-,,-,,,,-
CC1=CC=C(C=C1)Br,-,-,309,4-Bromotoluene,A170,15154768,-,-,-3.19,log(mol/L),3.19,-log(M),,,-,,-,,,,-
COC1=CC=C(C=C1)Cl,-,-,310,4-Chloroanisole,A170,15154768,-,-,-2.78,log(mol/L),2.78,-log(M),,,-,,-,,,,-
OC1=CC=C(Cl)C=C1,-,-,311,4-Chlorophenol,A170,15154768,-,-,-0.7,log(mol/L),0.7,-log(M),,,-,,-,,,,-
CC1=CC=C(Cl)C=C1,-,-,312,4-Chlorotoluene,A170,15154768,-,-,-3.08,log(mol/L),3.08,-log(M),,,-,,-,,,,-
CCC1=CC=C(C)C=C1,-,-,313,4-Ethyltoluene,A170,15154768,-,-,-3.11,log(mol/L),3.11,-log(M),,,-,,-,,,,-
CCCC(O)CCC,-,-,314,4-heptanol,A170,15154768,-,-,-1.4,log(mol/L),1.4,-log(M),,,-,,-,,,,-
CCCC(CCC)=O,-,-,315,4-heptanone,A170,15154768,-,-,-1.3,log(mol/L),1.3,-log(M),,,-,,-,,,,-
C1(O)=CC(O)=CC=C1CCCCCC,-,-,316,4-hexylresorcinol,A170,15154768,-,-,-2.59,log(mol/L),2.59,-log(M),,,-,,-,,,,-
OC1=CC=NC=C1,-,-,317,4-hydroxypyridine,A170,15154768,-,-,1.02,log(mol/L),-1.02,-log(M),,,-,,-,,,,-
CC(C1=CC=C(C)C=C1)C,-,-,318,4-Isopropyltoluene,A170,15154768,-,-,-3.77,log(mol/L),3.77,-log(M),,,-,,-,,,,-
O(C1=NC=NC2=NC=CN=C21)C,-,-,319,4-methoxypteridine,A170,15154768,-,,-1.11,log(mol/L),1.11,-log(M),,,-,,-,,,,-
CC(C)CC(C)O,-,-,320,4-methyl-2-pentanol,A170,15154768,-,-,-0.8,log(mol/L),0.8,-log(M),,,-,,-,,,,-
CC(C)CC(=O)C,-,-,321,4-Methyl-2-pentanone,A170,15154768,-,-,-0.74,log(mol/L),0.74,-log(M),,,-,,-,,,,-
CC1=CC=C(C=C1)C2=CC=CC=C2,-,-,322,4-Methylbiphenyl,A170,15154768,-,-,-4.62,log(mol/L),4.62,-log(M),,,-,,-,,,,-
CC(C)CCCO,-,-,323,4-Methylpentanol,A170,15154768,-,-,-1.14,log(mol/L),1.14,-log(M),,,-,,-,,,,-
N1=C2C(=NC=NC2=NC=C1)C,-,-,324,4-methylpteridine,A170,15154768,-,,-0.466,log(mol/L),0.466,-log(M),,,-,,-,,,,-
CC(NC1=CC=C(N(=O)=O)C=C1)=O,-,-,325,4-nitroacetanilide,A170,15154768,-,-,-2.692,log(mol/L),2.692,-log(M),,,-,,-,,,,-
OCCCC=C,-,-,326,4-Pentene-1-ol,A170,15154768,-,-,-0.15,log(mol/L),0.15,-log(M),,,-,,-,,,,-
O=C1NC(=O)NC(=O)C1(CC)CC=C(C)C,-,-,327,5-(3-Methyl-2-butenyl)-5-ethylbarbital,A170,15154768,-,-,-2.253,log(mol/L),2.253,-log(M),,,-,,-,,,,-
O=C1NC(=O)NC(=O)C1(C(C)C)CC=C(C)C,-,-,328,5-(3-Methyl-2-butenyl)-5-isoPrbarbital,A170,15154768,-,-,-2.593,log(mol/L),2.593,-log(M),,,-,,-,,,,-
O=C1NC(=O)NC(=O)C1(CC=C)CC=C,-,-,329,"5,5-Diallylbarbital",A170,15154768,-,-,-2.077,log(mol/L),2.077,-log(M),,,-,,-,,,,-
O=C1NC(=O)NC(=O)C1(C(C)C)C(C)C,-,-,330,"5,5-Diisopropylbarbital",A170,15154768,-,-,-2.766,log(mol/L),2.766,-log(M),,,-,,-,,,,-
O=C1NC(=O)NC(=O)C1(C)C,-,-,331,"5,5-Dimethylbarbituric acid",A170,15154768,-,-,-1.742,log(mol/L),1.742,-log(M),,,-,,-,,,,-
OC1=CC=C2CCCCC2=C1,-,-,332,"5,6,7,8-tetrahydro-2-naphthol",A170,15154768,-,-,-1.99,log(mol/L),1.99,-log(M),,,-,,-,,,,-
CC1=C(C)C=2C=3C=CC=CC3C=CC2C=4C=CC=CC14,-,-,333,"5,6-Dimethylchrysene",A170,15154768,-,-,-7.01,log(mol/L),7.01,-log(M),,,-,,-,,,,-
O=C1NC(=O)NC(=O)C1(CC)CC=C,-,-,334,5-Allyl-5-ethylbarbital,A170,15154768,-,-,-1.614,log(mol/L),1.614,-log(M),,,-,,-,,,,-
O=C1NC(=O)NC(=O)C1(C(C)C)CC=C,-,-,335,5-Allyl-5-isopropylbarbital,A170,15154768,-,-,-1.708,log(mol/L),1.708,-log(M),,,-,,-,,,,-
O=C1NC(=O)NC(=O)C1(C)CC=C,-,-,336,5-Allyl-5-methylbarbital,A170,15154768,-,-,-1.16,log(mol/L),1.16,-log(M),,,-,,-,,,,-
O=C1NC(=O)NC(=O)C1(CC=C)C2=CC=CC=C2,-,-,337,5-Allyl-5-phenylbarbital,A170,15154768,-,-,-2.369,log(mol/L),2.369,-log(M),,,-,,-,,,,-
O=C1NC(=O)NC(=O)C1(CC)CCC(C)C,-,-,338,5-Ethyl-5-(3-methylbutyl)barbital,A170,15154768,-,-,-2.658,log(mol/L),2.658,-log(M),,,-,,-,,,,-
O=C1NC(=O)NC(=O)C1(CC)C(C)C,-,-,339,5-Ethyl-5-isopropylbarbituric acid,A170,15154768,-,-,-2.148,log(mol/L),2.148,-log(M),,,-,,-,,,,-
O=C1NC(=O)NC(=O)C1(CC)C2=CC=CC=C2,-,-,340,5-Ethyl-5-phenylbarbital,A170,15154768,-,,-2.322,log(mol/L),2.322,-log(M),,,-,,-,,,,-
FC1=CNC(=O)NC1=O,-,-,341,5-fluorouracil,A170,15154768,-,-,-1.077,log(mol/L),1.077,-log(M),,,-,,-,,,,-
OC1=CC=CC=2N=CC=CC12,-,-,342,5-hydroxyquinoline,A170,15154768,-,-,-2.54,log(mol/L),2.54,-log(M),,,-,,-,,,,-
O=C1NC(=O)NC(=O)C1(C)CC,-,-,343,5-Methyl-5-ethylbarbituric acid,A170,15154768,-,-,-1.228,log(mol/L),1.228,-log(M),,,-,,-,,,,-
C1=CC=CC=2C=3C(C)=CC=4C=CC=CC4C3C=CC12,-,-,344,5-Methylchrysene,A170,15154768,-,-,-6.59,log(mol/L),6.59,-log(M),,,-,,-,,,,-
NC=1C(C)=CNC(=O)N1,-,-,345,5-methylcytosine,A170,15154768,-,-,-1.458,log(mol/L),1.458,-log(M),,,-,,-,,,,-
CCCCC(CCCC)=O,-,-,346,5-nonanone,A170,15154768,-,-,-2.58,log(mol/L),2.58,-log(M),,,-,,-,,,,-
NC1=CC=2C=3C=CC=CC3C=CC2C=4C=CC=CC14,-,-,347,6-aminochrysene,A170,15154768,-,-,-6.2,log(mol/L),6.2,-log(M),,,-,,-,,,,-
OC1=CC=C2N=CC=CC2=C1,-,-,348,6-hydroxyquinoline,A170,15154768,-,-,-2.16,log(mol/L),2.16,-log(M),,,-,,-,,,,-
O(C1=NC=2C(N=C1)=NC=NC2)C,-,-,349,6-methoxypteridine,A170,15154768,-,,-1.139,log(mol/L),1.139,-log(M),,,-,,-,,,,-
CC1=CC=2C=3C=CC=CC3C=CC2C=4C=CC=CC14,-,-,350,6-Methylchrysene,A170,15154768,-,-,-6.57,log(mol/L),6.57,-log(M),,,-,,-,,,,-
CC=1C=2C=CC=CC2C(C)=C3C=CC=4C=CC=CC4C13,-,-,351,"7,12-dimethylbenz(a)anthracene",A170,15154768,-,-,-7.02,log(mol/L),7.02,-log(M),,,-,,-,,,,-
O(C1=NC2=NC=NC=C2N=C1)C,-,-,352,7-methoxypteridine,A170,15154768,-,,-0.91,log(mol/L),0.91,-log(M),,,-,,-,,,,-
N1=C2N=CN=CC2=NC=C1C,-,-,353,7-methylpteridine,A170,15154768,-,,-0.854,log(mol/L),0.854,-log(M),,,-,,-,,,,-
OC1=CC=CC=2C=CC=NC12,-,-,354,8-quinolinol,A170,15154768,-,-,-2.42,log(mol/L),2.42,-log(M),,,-,,-,,,,-
CC=1C=2C=CC=CC2C(C)=C3C=CC=CC13,-,-,355,"9,10-dimethylanthracene",A170,15154768,-,-,-6.57,log(mol/L),6.57,-log(M),,,-,,-,,,,-
C1=CC=C2C(O)=C3C=CC=CC3=CC2=C1,-,-,356,9-anthrol,A170,15154768,-,-,-4.73,log(mol/L),4.73,-log(M),,,-,,-,,,,-
CC=1C=2C=CC=CC2C=C3C=CC=CC13,-,-,357,9-methylanthracene,A170,15154768,-,-,-5.89,log(mol/L),5.89,-log(M),,,-,,-,,,,-
COP(=S)(OC)OC1=CC=C(SC2=CC=C(OP(=S)(OC)OC)C=C2)C=C1,-,-,358,Abate,A170,15154768,-,-,-6.237,log(mol/L),6.237,-log(M),,,-,,-,,,,-
C1CC2=CC=CC=3C=CC=C1C23,-,-,359,Acenapthene,A170,15154768,-,-,-4.63,log(mol/L),4.63,-log(M),,,-,,-,,,,-
C1=CC2=CC=CC=3C=CC=C1C23,-,-,360,Acenapthylene,A170,15154768,-,-,-3.96,log(mol/L),3.96,-log(M),,,-,,-,,,,-
COP(=O)(NC(C)=O)SC,-,-,361,Acephate,A170,15154768,-,-,0.54,log(mol/L),-0.54,-log(M),,,-,,-,,,,-
CC(=O)N,-,-,362,acetamide,A170,15154768,-,-,1.58,log(mol/L),-1.58,-log(M),,,-,,-,,,,-
CC(NC1=CC=CC=C1)=O,-,-,363,acetanilide,A170,15154768,-,-,-1.33,log(mol/L),1.33,-log(M),,,-,,-,,,,-
CC(=O)NC1=NN=C(S1)S(N)(=O)=O,-,-,364,Acetazolamide,A170,15154768,-,-,-2.36,log(mol/L),2.36,-log(M),,,-,,-,,,,-
[H]C([H])([H])C#N,-,-,365,Acetonitrile,A170,15154768,-,-,0.26,log(mol/L),-0.26,-log(M),,,-,,-,,,,-
CC(=O)C1=CC=CC=C1,-,-,366,Acetophenone,A170,15154768,-,-,-1.28,log(mol/L),1.28,-log(M),,,-,,-,,,,-
CC(=O)N(S(=O)C1=CC=C(N)C=C1)C=2ON=C(C)C2C,-,-,367,acetyl sulfisoxazole,A170,15154768,-,-,-3.59,log(mol/L),3.59,-log(M),,,-,,-,,,,-
C1=CC=C2N=C3C=CC=CC3=CC2=C1,-,-,368,acridine,A170,15154768,-,-,-3.67,log(mol/L),3.67,-log(M),,,-,,-,,,,-
C=CC=O,-,-,369,acrolein,A170,15154768,-,-,0.57,log(mol/L),-0.57,-log(M),,,-,,-,,,,-
C=CC#N,-,-,370,acrylonitrile,A170,15154768,-,-,0.15,log(mol/L),-0.15,-log(M),,,-,,-,,,,-
NC1=NC=NC=2N=CNC12,-,-,371,adenine,A170,15154768,-,-,-2.12,log(mol/L),2.12,-log(M),,,-,,-,,,,-
CC12CC(=O)C3C(CCC4=CC(=O)CCC34C)C1CCC2=O,-,-,372,adrenosterone,A170,15154768,-,-,-3.48,log(mol/L),3.48,-log(M),,,-,,-,,,,-
CCC1=CC=CC(CC)=C1N(COC)C(=O)CCl,-,-,373,alachlor,A170,15154768,-,-,-3.26,log(mol/L),3.26,-log(M),,,-,,-,,,,-
CC12CCC(=O)C=C1CCC3C4CCC(C(=O)CO)C4(CC(O)C23)C=O,-,-,374,aldosterone,A170,15154768,-,-,-3.85,log(mol/L),3.85,-log(M),,,-,,-,,,,-
ClC1=C(Cl)C2(Cl)C3C4CC(C=C4)C3C1(Cl)C2(Cl)Cl,-,-,375,aldrin,A170,15154768,-,-,-6.307,log(mol/L),6.307,-log(M),,,-,,-,,,,-
NC(=O)NC1NC(=O)NC1=O,-,-,376,allantoin,A170,15154768,-,-,-1.6,log(mol/L),1.6,-log(M),,,-,,-,,,,-
C=CCS(SCC=C)=O,-,-,377,allicin,A170,15154768,-,-,-0.83,log(mol/L),0.83,-log(M),,,-,,-,,,,-
O=C1NC=NC=2NN=CC12,-,-,378,allopurinol,A170,15154768,-,-,-2.266,log(mol/L),2.266,-log(M),,,-,,-,,,,-
O=C1NC(=O)C(=O)C(=O)N1,-,-,379,alloxan,A170,15154768,-,-,-1.25,log(mol/L),1.25,-log(M),,,-,,-,,,,-
C1(=O)NC(=O)NC(=O)C1(O)C2(O)C(=O)NC(=O)NC2=O,-,-,380,alloxantin,A170,15154768,-,-,-1.99,log(mol/L),1.99,-log(M),,,-,,-,,,,-
CN(C)C1=NC(=NC(=N1)N(C)C)N(C)C,-,-,381,Altretamine,A170,15154768,-,-,-3.364,log(mol/L),3.364,-log(M),,,-,,-,,,,-
CCNC1=NC(NC(C)C)=NC(SC)=N1,-,-,382,ametryn,A170,15154768,-,-,-3.04,log(mol/L),3.04,-log(M),,,-,,-,,,,-
OCC1OC(OCC2OC(OC(C#N)C3=CC=CC=C3)C(O)C(O)C2O)C(O)C(O)C1O,-,-,383,Amigdalin,A170,15154768,-,-,-0.77,log(mol/L),0.77,-log(M),,,-,,-,,,,-
CNC(=O)OC1=CC=C(N(C)C)C(C)=C1,-,-,384,aminocarb,A170,15154768,-,-,-2.36,log(mol/L),2.36,-log(M),,,-,,-,,,,-
CN(C1=C(N(N(C1=O)C2=CC=CC=C2)C)C)C,-,-,385,Aminopyrine,A170,15154768,-,-,-0.364,log(mol/L),0.364,-log(M),,,-,,-,,,,-
NC1=NC=CS1,-,-,386,aminothiazole,A170,15154768,-,-,-0.36,log(mol/L),0.36,-log(M),,,-,,-,,,,-
CN(C=NC1=CC=C(C)C=C1C)C=NC2=CC=C(C)C=C2C,-,-,387,amitraz,A170,15154768,-,-,-5.47,log(mol/L),5.47,-log(M),,,-,,-,,,,-
NC=1N=CNN1,-,-,388,Amitrole,A170,15154768,-,-,0.522,log(mol/L),-0.522,-log(M),,,-,,-,,,,-
CCC1(CCC(C)C)C(=O)NC(=O)NC1=O,-,-,389,amobarbital,A170,15154768,-,-,-2.468,log(mol/L),2.468,-log(M),,,-,,-,,,,-
CC1=C(N)C(=O)N(C2=CC=CC=C2)N1C,-,-,390,Ampyrone,A170,15154768,-,-,-0.624,log(mol/L),0.624,-log(M),,,-,,-,,,,-
COC1=CC=C(C=C1)C(O)(C2CC2)C3=CN=CN=C3,-,-,391,ancymidol,A170,15154768,-,-,-2.596,log(mol/L),2.596,-log(M),,,-,,-,,,,-
CC12CCC3C(CCC4=CC(=O)CCC34C)C1CCC2=O,-,-,392,androstenedione,A170,15154768,-,-,-3.69,log(mol/L),3.69,-log(M),,,-,,-,,,,-
CC12CCC(O)CC1CCC3C2CCC4(C)C3CCC4=O,-,-,393,androsterone,A170,15154768,-,-,-4.402,log(mol/L),4.402,-log(M),,,-,,-,,,,-
COC1=CC=C(C=CC)C=C1,-,-,394,anethole,A170,15154768,-,-,-3.13,log(mol/L),3.13,-log(M),,,-,,-,,,,-
NC1=CC=CC=C1,-,-,395,aniline,A170,15154768,-,-,-0.41,log(mol/L),0.41,-log(M),,,-,,-,,,,-
COP(=S)(OC)SCC(=O)N(C(C)C)C1=CC=C(Cl)C=C1,-,-,396,Anilofos,A170,15154768,-,-,-4.432,log(mol/L),4.432,-log(M),,,-,,-,,,,-
COC1=CC=CC=C1,-,-,397,anisole,A170,15154768,-,-,-1.85,log(mol/L),1.85,-log(M),,,-,,-,,,,-
C1=CC=C2C=C3C=CC=CC3=CC2=C1,-,-,398,Anthracene,A170,15154768,-,-,-6.35,log(mol/L),6.35,-log(M),,,-,,-,,,,-
O=C1C2=CC=CC=C2C(=O)C3=CC=CC=C13,-,-,399,anthraquinone,A170,15154768,-,-,-5.19,log(mol/L),5.19,-log(M),,,-,,-,,,,-
CC1=CC(N(N1C)C2=CC=CC=C2)=O,-,-,400,Antipyrene,A170,15154768,-,,0.715,log(mol/L),-0.715,-log(M),,,-,,-,,,,-
CCCC1C(=O)N2N(C1=O)C3=CC(C)=CC=C3N=C2N(C)C,-,-,401,Apazone,A170,15154768,-,-,-3.538,log(mol/L),3.538,-log(M),,,-,,-,,,,-
OC1=C(C2CCC(CC2)C3=CC=C(Cl)C=C3)C(=O)C4=CC=CC=C4C1=O,-,-,402,"Atovaquone(0,430mg/ml) - neutral",A170,15154768,-,-,-5.931,log(mol/L),5.931,-log(M),,,-,,-,,,,-
CCNC1=NC(NC(C)C)=NC(OC)=N1,-,-,403,Atratone,A170,15154768,-,-,-2.084,log(mol/L),2.084,-log(M),,,-,,-,,,,-
CCNC1=NC(Cl)=NC(NC(C)C)=N1,-,-,404,atrazine,A170,15154768,-,-,-3.85,log(mol/L),3.85,-log(M),,,-,,-,,,,-
CCN(CC)C(=O)CSC1=CC=C(Cl)N=N1,-,-,405,Azintamide,A170,15154768,-,-,-1.716,log(mol/L),1.716,-log(M),,,-,,-,,,,-
N(=NC1=CC=CC=C1)C2=CC=CC=C2,-,-,406,azobenzene,A170,15154768,-,-,-4.45,log(mol/L),4.45,-log(M),,,-,,-,,,,-
CNC(=O)C=C(C)OP(=O)(OC)OC,-,-,407,Azodrin,A170,15154768,-,-,0.651,log(mol/L),-0.651,-log(M),,,-,,-,,,,-
ClCC#CCOC(=O)NC1=CC=CC(Cl)=C1,-,-,408,Barban,A170,15154768,-,-,-4.37,log(mol/L),4.37,-log(M),,,-,,-,,,,-
O=C1NC(=O)NC(=O)C1(CC)CC,-,-,409,barbital,A170,15154768,-,-,-2.4,log(mol/L),2.4,-log(M),,,-,,-,,,,-
NS(=O)(=O)C1=CC2=C(NC(CC3=CC=CC=C3)NS2(=O)=O)C=C1C(F)(F)F,-,-,410,bendroflumethiazide,A170,15154768,-,-,-3.59,log(mol/L),3.59,-log(M),,,-,,-,,,,-
CCCCN(CC)C1=C(C=C(C=C1N(=O)=O)C(F)(F)F)N(=O)=O,-,-,411,benfluralin,A170,15154768,-,-,-5.53,log(mol/L),5.53,-log(M),,,-,,-,,,,-
CCOC(=O)CCN(SN(C)C(=O)OC1=CC=CC=2CC(C)(C)OC21)C(C)C,-,-,412,Benfuracarb,A170,15154768,-,-,-4.71,log(mol/L),4.71,-log(M),,,-,,-,,,,-
C1=C(NC(=O)C2=CC=CC=C2I)C=CC=C1,-,-,413,benodanil,A170,15154768,-,-,-4.21,log(mol/L),4.21,-log(M),,,-,,-,,,,-
CCCCNC(=O)N1C(NC(=O)OC)=NC=2C=CC=CC12,-,-,414,Benomyl,A170,15154768,-,-,-4.883,log(mol/L),4.883,-log(M),,,-,,-,,,,-
CC(C)OP(=S)(OC(C)C)SCCNS(=O)(=O)C1=CC=CC=C1,-,-,415,bensulide,A170,15154768,-,-,-4.2,log(mol/L),4.2,-log(M),,,-,,-,,,,-
O=CC1=CC=CC=C1,-,-,416,benzaldehyde,A170,15154768,-,-,-1.19,log(mol/L),1.19,-log(M),,,-,,-,,,,-
NC(C1=CC=CC=C1)=O,-,-,417,benzamide,A170,15154768,-,-,-0.96,log(mol/L),0.96,-log(M),,,-,,-,,,,-
C1=CC=CC=C1,-,-,418,Benzene,A170,15154768,-,-,-1.64,log(mol/L),1.64,-log(M),,,-,,-,,,,-
C1=CC=CC=C1C(O)C2=CC=CC=C2,-,-,419,benzhydrol,A170,15154768,-,-,-2.55,log(mol/L),2.55,-log(M),,,-,,-,,,,-
O=C(CN1C=CN=C1N(=O)=O)NCC2=CC=CC=C2,-,-,420,benznidazole,A170,15154768,-,-,-2.81,log(mol/L),2.81,-log(M),,,-,,-,,,,-
C1C2=CC=CC=C2C3=CC=C4C=CC=CC4=C13,-,-,421,benzo(a)fluorene,A170,15154768,-,-,-6.68,log(mol/L),6.68,-log(M),,,-,,-,,,,-
C1=CC=C2C(=C1)C=C3C=CC=4C=CC=C5C=CC2=C3C45,-,-,422,benzo(a)pyrene,A170,15154768,-,-,-8.699,log(mol/L),8.699,-log(M),,,-,,-,,,,-
C1=CC=C2C(=C1)C=3C=CC=C4C3C2=CC=5C=CC=CC54,-,-,423,benzo(b)fluoranthene,A170,15154768,-,-,-8.23,log(mol/L),8.23,-log(M),,,-,,-,,,,-
C1C2=CC=CC=C2C3=CC=4C=CC=CC4C=C13,-,-,424,benzo(b)fluorene,A170,15154768,-,-,-8.04,log(mol/L),8.04,-log(M),,,-,,-,,,,-
C1=CC=C2C(=C1)C=3C=CC=C4C=CC=5C=CC=C2C5C43,-,-,425,benzo(e)pyrene,A170,15154768,-,-,-7.8,log(mol/L),7.8,-log(M),,,-,,-,,,,-
C1=CC=C2C3=C(C=CC2=C1)C=4C=CC=C5C=CC=C3C45,-,-,426,benzo(j)fluoranthene,A170,15154768,-,-,-8.0,log(mol/L),8.0,-log(M),,,-,,-,,,,-
C1=CC=C2C=C3C=4C=CC=C5C=CC=C(C3=CC2=C1)C45,-,-,427,benzo(k)fluoranthene,A170,15154768,-,-,-8.49,log(mol/L),8.49,-log(M),,,-,,-,,,,-
C1=CC=2C=CC=3C=CC=4C=CC=5C=CC=C6C(=C1)C2C3C4C56,-,-,428,Benzo[ghi]perylene,A170,15154768,-,-,-9.018,log(mol/L),9.018,-log(M),,,-,,-,,,,-
CCOC(=O)C1=CC=C(N)C=C1,-,-,429,Benzocaine,A170,15154768,-,-,-2.616,log(mol/L),2.616,-log(M),,,-,,-,,,,-
OC(C(=O)C1=CC=CC=C1)C2=CC=CC=C2,-,-,430,benzoin,A170,15154768,-,-,-2.85,log(mol/L),2.85,-log(M),,,-,,-,,,,-
N#CC1=CC=CC=C1,-,-,431,benzonitrile,A170,15154768,-,-,-1.0,log(mol/L),1.0,-log(M),,,-,,-,,,,-
O=C(C1=CC=CC=C1)C2=CC=CC=C2,-,-,432,benzophenone,A170,15154768,-,-,-3.12,log(mol/L),3.12,-log(M),,,-,,-,,,,-
C1=CC=C2SC=NC2=C1,-,-,433,benzothiazole,A170,15154768,-,-,-1.5,log(mol/L),1.5,-log(M),,,-,,-,,,,-
C1=CC=C2NN=NC2=C1,-,-,434,benzotriazole,A170,15154768,-,-,-0.78,log(mol/L),0.78,-log(M),,,-,,-,,,,-
C1=CC=C2OC=NC2=C1,-,-,435,benzoxazole,A170,15154768,-,-,-1.16,log(mol/L),1.16,-log(M),,,-,,-,,,,-
ClCC1=CC=CC=C1,-,-,436,Benzylchloride,A170,15154768,-,-,-2.39,log(mol/L),2.39,-log(M),,,-,,-,,,,-
FC(F)(F)C1=CC=CC=C1,-,-,437,Benzyltrifluoride,A170,15154768,-,-,-2.51,log(mol/L),2.51,-log(M),,,-,,-,,,,-
NC(NCC1=CC=CC=C1)=O,-,-,438,benzylurea,A170,15154768,-,-,-0.95,log(mol/L),0.95,-log(M),,,-,,-,,,,-
CCCCC(=O)OC1(C(C)CC2C3CCC4=CC(=O)C=CC4(C)C3(F)C(O)CC12C)C(=O)CO,-,-,439,betamethasone-17-valerate,A170,15154768,-,-,-4.71,log(mol/L),4.71,-log(M),,,-,,-,,,,-
C(CC1=CC=CC=C1)C2=CC=CC=C2,-,-,440,bibenzyl,A170,15154768,-,-,-4.62,log(mol/L),4.62,-log(M),,,-,,-,,,,-
C1=CC=C(C=C1)C2=CC=CC=C2,-,-,441,biphenyl,A170,15154768,-,-,-4.345,log(mol/L),4.345,-log(M),,,-,,-,,,,-
C1=CC=C2N=C(C=CC2=C1)C3=CC=C4C=CC=CC4=N3,-,-,442,biquinoline,A170,15154768,-,-,-5.4,log(mol/L),5.4,-log(M),,,-,,-,,,,-
CC1(C)C2CCC1(C)C(O)C2,-,-,443,borneol,A170,15154768,-,-,-2.32,log(mol/L),2.32,-log(M),,,-,,-,,,,-
CCC(C)N1C(=O)NC(C)=C(Br)C1=O,-,-,444,Bromacil,A170,15154768,-,-,-2.523,log(mol/L),2.523,-log(M),,,-,,-,,,,-
BrC1=CC=C(C2=CC=C(C(O)CC(C3=C(O)C=4C(OC3=O)=CC=CC4)C5=CC=CC=C5)C=C2)C=C1,-,-,445,bromadiolone,A170,15154768,-,,-4.445,log(mol/L),4.445,-log(M),,,-,,-,,,,-
BrC1=CC=CC=C1,-,-,446,bromobenzene,A170,15154768,-,-,-2.55,log(mol/L),2.55,-log(M),,,-,,-,,,,-
ClCBr,-,-,447,bromochloromethane,A170,15154768,-,-,-0.89,log(mol/L),0.89,-log(M),,,-,,-,,,,-
BrC(Cl)Cl,-,-,448,bromodichloromethane,A170,15154768,-,-,-1.54,log(mol/L),1.54,-log(M),,,-,,-,,,,-
CCBr,-,-,449,bromoethane,A170,15154768,-,-,-1.09,log(mol/L),1.09,-log(M),,,-,,-,,,,-
BrC([H])([H])[H],-,-,450,Bromomethane,A170,15154768,-,-,-0.79,log(mol/L),0.79,-log(M),,,-,,-,,,,-
COP(=S)(OC)OC1=CC(Cl)=C(Br)C=C1Cl,-,-,451,bromophos,A170,15154768,-,-,-6.09,log(mol/L),6.09,-log(M),,,-,,-,,,,-
CC(C)OC(=O)C(O)(C1=CC=C(Br)C=C1)C2=CC=C(Br)C=C2,-,-,452,bromopropylate,A170,15154768,-,-,-4.93,log(mol/L),4.93,-log(M),,,-,,-,,,,-
OC1=C(Br)C=C(C#N)C=C1Br,-,-,453,bromoxynil,A170,15154768,-,-,-3.33,log(mol/L),3.33,-log(M),,,-,,-,,,,-
C1=CC=CC=C1N2N=CC(N)=C(Br)C2=O,-,-,454,brompyrazone,A170,15154768,-,-,-3.127,log(mol/L),3.127,-log(M),,,-,,-,,,,-
CCCCC1=C(C)N=C(NCC)N=C1OS(=O)(=O)N(C)C,-,-,455,bupirimate,A170,15154768,-,-,-4.16,log(mol/L),4.16,-log(M),,,-,,-,,,,-
O=C1NC(=O)NC(=O)C1(CC)C(C)CC,-,-,456,Butabarbital,A170,15154768,-,-,-2.39,log(mol/L),2.39,-log(M),,,-,,-,,,,-
C1(C(C)(C)C)=CC(C(C)(C)C)=CC(OC(=O)NC)=C1,-,-,457,butacarb,A170,15154768,-,-,-4.24,log(mol/L),4.24,-log(M),,,-,,-,,,,-
CCCCOCN(C(=O)CCl)C1=C(CC)C=CC=C1CC,-,-,458,butachlor,A170,15154768,-,-,-4.19,log(mol/L),4.19,-log(M),,,-,,-,,,,-
CCC(C)C1(CC(Br)=C)C(=O)NC(=O)NC1=O,-,-,459,butallylonal,A170,15154768,-,-,-2.647,log(mol/L),2.647,-log(M),,,-,,-,,,,-
CCCCOC(=O)C1=CC=C(N)C=C1,-,-,460,Butamben,A170,15154768,-,-,-3.082,log(mol/L),3.082,-log(M),,,-,,-,,,,-
C(C(C)O)C,-,-,461,Butan-2-ol,A170,15154768,-,-,0.47,log(mol/L),-0.47,-log(M),,,-,,-,,,,-
CCCC,-,-,462,Butane,A170,15154768,-,-,-2.57,log(mol/L),2.57,-log(M),,,-,,-,,,,-
CCCCS,-,-,463,butanethiol,A170,15154768,-,-,-2.18,log(mol/L),2.18,-log(M),,,-,,-,,,,-
CCCCC1(CC)C(=O)NC(=O)NC1=O,-,-,464,Butethal,A170,15154768,-,-,-1.661,log(mol/L),1.661,-log(M),,,-,,-,,,,-
CN1CC(O)N(C1=O)C2=NN=C(S2)C(C)(C)C,-,-,465,Buthidazole,A170,15154768,-,-,-1.877,log(mol/L),1.877,-log(M),,,-,,-,,,,-
CC(C#C)N(C)C(=O)NC1=CC=C(Cl)C=C1,-,-,466,buturon,A170,15154768,-,-,-3.9,log(mol/L),3.9,-log(M),,,-,,-,,,,-
C(CCC)OC=O,-,-,467,Butyl acetate,A170,15154768,-,-,-1.37,log(mol/L),1.37,-log(M),,,-,,-,,,,-
CCSC(=O)N(CC(C)C)CC(C)C,-,-,468,butylate,A170,15154768,-,-,-3.68,log(mol/L),3.68,-log(M),,,-,,-,,,,-
CCCCC1=CC=CC=C1,-,-,469,Butylbenzene,A170,15154768,-,-,-4.06,log(mol/L),4.06,-log(M),,,-,,-,,,,-
CCCC=O,-,-,470,Butyraldehyde,A170,15154768,-,-,-0.01,log(mol/L),0.01,-log(M),,,-,,-,,,,-
CN1C=NC=2N(C)C(=O)N(C)C(=O)C12,-,-,471,Caffeine,A170,15154768,-,-,-0.876,log(mol/L),0.876,-log(M),,,-,,-,,,,-
CC1(C)C2CCC1(C)C(=O)C2,-,-,472,camphor,A170,15154768,-,-,-1.96,log(mol/L),1.96,-log(M),,,-,,-,,,,-
CCCCCC=O,-,-,473,Caproaldehyde,A170,15154768,-,-,-1.3,log(mol/L),1.3,-log(M),,,-,,-,,,,-
ClC(Cl)C(Cl)(Cl)SN1C(=O)C2CC=CCC2C1=O,-,-,474,captafol,A170,15154768,-,-,-5.4,log(mol/L),5.4,-log(M),,,-,,-,,,,-
O=C(NC1=CC=CC=C1)NC2=CC=CC=C2,-,-,475,carbanilide,A170,15154768,-,-,-3.15,log(mol/L),3.15,-log(M),,,-,,-,,,,-
CNC(=O)OC1=CC=CC=2C=CC=CC12,-,-,476,carbaryl,A170,15154768,-,-,-3.224,log(mol/L),3.224,-log(M),,,-,,-,,,,-
C1=CC=C2C(=C1)NC=3C=CC=CC32,-,-,477,carbazole,A170,15154768,-,-,-5.27,log(mol/L),5.27,-log(M),,,-,,-,,,,-
C1=C(NC(=O)OC(C)C(=O)NCC)C=CC=C1,-,-,478,carbetamide,A170,15154768,-,-,-1.83,log(mol/L),1.83,-log(M),,,-,,-,,,,-
CNC(=O)OC1=CC=CC=2CC(C)(C)OC12,-,-,479,Carbofuran,A170,15154768,-,-,-2.8,log(mol/L),2.8,-log(M),,,-,,-,,,,-
CCOP(=S)(OCC)SCSC1=CC=C(Cl)C=C1,-,-,480,Carbophenthion,A170,15154768,-,-,-5.736,log(mol/L),5.736,-log(M),,,-,,-,,,,-
CC1=C(SCCO1)C(=O)NC2=CC=CC=C2,-,-,481,carboxin,A170,15154768,-,-,-3.14,log(mol/L),3.14,-log(M),,,-,,-,,,,-
CCC(Br)(CC)C(=O)NC(N)=O,-,-,482,carbromal,A170,15154768,-,-,-2.68,log(mol/L),2.68,-log(M),,,-,,-,,,,-
C1(O)=C(C)C=CC(C(C)C)=C1,-,-,483,carvacrol,A170,15154768,-,-,-2.08,log(mol/L),2.08,-log(M),,,-,,-,,,,-