SMILES,CASRN,EXTERNALID,N,NAME,ARTICLEID,PUBMEDID,PAGE,TABLE,Solubility_log(mol/L),UNIT {Water solubility},"Water solubility {measured, converted}",UNIT {Water solubility}.1,Dataset,Temperature,UNIT {Temperature},Ionic strength,UNIT {Ionic strength},comment (chemical),source,pH,UNIT {pH}
C(CCCC#C)CCC,-,-,132,1-nonyne,A5370,19226181,-,S1,-4.24,log(mol/L),4.24,-log(M),Train,,-,,-,,,,-
C(CCCCCCCCCCCCC)CCCCCCCCCCCC,-,-,133,hexacosane,A5370,19226181,-,S1,-8.33,log(mol/L),8.33,-log(M),Train,,-,,-,,,,-
CCCCCCCCCCCCCCCCCCCC,-,-,134,Eicosane,A5370,19226181,-,S1,-8.17,log(mol/L),8.17,-log(M),Train,,-,,-,,,,-
CCCCCCCCCCCCCCCC,-,-,135,Hexadecane,A5370,19226181,-,S1,-8.4,log(mol/L),8.4,-log(M),Train,,-,,-,,,,-
CCCCCCCCCCCCCC,-,-,136,Tetradecane,A5370,19226181,-,S1,-7.96,log(mol/L),7.96,-log(M),Train,,-,,-,,,,-
CCCCCCCCC,-,-,137,Nonane,A5370,19226181,-,S1,-5.88,log(mol/L),5.88,-log(M),Train,,-,,-,,,,-
C(CCCC)CCCC=C,-,-,138,1-Decene,A5370,19226181,-,S1,-5.51,log(mol/L),5.51,-log(M),Train,,-,,-,,,,-
C(CCCCCC)C,-,-,139,n-octane,A5370,19226181,-,S1,-5.24,log(mol/L),5.24,-log(M),Train,,-,,-,,,,-
C=CCCCCCCC,-,-,140,1-Nonene,A5370,19226181,-,S1,-5.05,log(mol/L),5.05,-log(M),Train,,-,,-,,,,-
C(CCC)CCC1=CC=CC=C1,-,-,141,n-hexylbenzene,A5370,19226181,-,S1,-5.21,log(mol/L),5.21,-log(M),Train,,-,,-,,,,-
C(CCC)CCC#C,-,-,142,1-octyne,A5370,19226181,-,S1,-3.66,log(mol/L),3.66,-log(M),Train,,-,,-,,,,-
C(CCC)CCC,-,-,143,n-heptane,A5370,19226181,-,S1,-4.53,log(mol/L),4.53,-log(M),Train,,-,,-,,,,-
C(CCC)CCC=C,-,-,144,1-Octene,A5370,19226181,-,S1,-4.44,log(mol/L),4.44,-log(M),Train,,-,,-,,,,-
C(CCC)CC,-,-,145,n-hexane,A5370,19226181,-,S1,-3.84,log(mol/L),3.84,-log(M),Train,,-,,-,,,,-
C=CCCCCC,-,-,146,1-Heptene,A5370,19226181,-,S1,-3.73,log(mol/L),3.73,-log(M),Train,,-,,-,,,,-
C1(=CC=CC=C1)CCCC,-,-,147,n-butylbenzene,A5370,19226181,-,S1,-4.06,log(mol/L),4.06,-log(M),Train,,-,,-,,,,-
C(CC)CC#C,-,-,148,1-hexyne,A5370,19226181,-,S1,-2.36,log(mol/L),2.36,-log(M),Train,,-,,-,,,,-
C(CCC)C,-,-,149,n-pentane,A5370,19226181,-,S1,-3.18,log(mol/L),3.18,-log(M),Train,,-,,-,,,,-
C(CC)CC=C,-,-,150,1-hexene,A5370,19226181,-,S1,-3.23,log(mol/L),3.23,-log(M),Train,,-,,-,,,,-
C(CC)CC=CC,-,-,151,trans-2-heptene,A5370,19226181,-,S1,-3.82,log(mol/L),3.82,-log(M),Train,,-,,-,,,,-
CCCCC=CC,-,-,152,trans-2-heptene,A5370,19226181,-,S1,-3.82,log(mol/L),3.82,-log(M),Train,,-,,-,,,,-
C(CC)C,-,-,153,Butane,A5370,19226181,-,S1,-2.57,log(mol/L),2.57,-log(M),Train,,-,,-,,,,-
C(=C)CCC,-,-,154,1-pentene,A5370,19226181,-,S1,-2.68,log(mol/L),2.68,-log(M),Train,,-,,-,,,,-
C(CC=C)C=C,-,-,155,"1,5-hexadiene",A5370,19226181,-,S1,-2.68,log(mol/L),2.68,-log(M),Train,,-,,-,,,,-
C(C)C1=CC=CC2=C1C=CC=C2,-,-,156,1-ethylnaphthalene,A5370,19226181,-,S1,-4.17,log(mol/L),4.17,-log(M),Train,,-,,-,,,,-
C(C)C1=C(C=CC=C1)CC,-,-,157,"1,2-Diethylbenzene",A5370,19226181,-,S1,-3.28,log(mol/L),3.28,-log(M),Train,,-,,-,,,,-
C(C)C1=C(C=CC=C1)C,-,-,158,1-ethyl-2-methylbenzene,A5370,19226181,-,S1,-3.21,log(mol/L),3.21,-log(M),Train,,-,,-,,,,-
C(C)C1=CC2=C(C=C3C(=C2)C=CC=C3)C=C1,-,-,159,2-ethylanthracene,A5370,19226181,-,S1,-6.89,log(mol/L),6.89,-log(M),Train,,-,,-,,,,-
C(C)C1=CC2=C(C=C1)C=CC=C2,-,-,160,2-ethylnaphthalene,A5370,19226181,-,S1,-4.29,log(mol/L),4.29,-log(M),Train,,-,,-,,,,-
C(C)C1=CC=C(C=C1)CC,-,-,161,"1,4-diethylbenzene",A5370,19226181,-,S1,-3.75,log(mol/L),3.75,-log(M),Train,,-,,-,,,,-
C1(=CC=C(C=C1)C)CC,-,-,162,1-ethyl-4-methylbenzene,A5370,19226181,-,S1,-3.11,log(mol/L),3.11,-log(M),Train,,-,,-,,,,-
C1(CC)=CC=CC=C1,-,-,163,ethylbenzene,A5370,19226181,-,S1,-2.77,log(mol/L),2.77,-log(M),Train,,-,,-,,,,-
C(#CCC)CC,-,-,164,3-Hexyne,A5370,19226181,-,S1,-1.99,log(mol/L),1.99,-log(M),Train,,-,,-,,,,-
C(CC)#C,-,-,165,1-Butyne,A5370,19226181,-,S1,-1.24,log(mol/L),1.24,-log(M),Train,,-,,-,,,,-
C(C)C(=C)C,-,-,166,2-Methyl-1-Butene,A5370,19226181,-,S1,-2.73,log(mol/L),2.73,-log(M),Train,,-,,-,,,,-
C(C)C,-,-,167,Propane,A5370,19226181,-,S1,-1.94,log(mol/L),1.94,-log(M),Train,,-,,-,,,,-
C(C)C=C,-,-,168,1-Butene,A5370,19226181,-,S1,-1.94,log(mol/L),1.94,-log(M),Train,,-,,-,,,,-
C(C)C=CC,-,-,169,trans-2-pentene,A5370,19226181,-,S1,-2.54,log(mol/L),2.54,-log(M),Train,,-,,-,,,,-
CCC=CC,-,-,170,trans-2-pentene,A5370,19226181,-,S1,-2.54,log(mol/L),2.54,-log(M),Train,,-,,-,,,,-
C=CCC=C,-,-,171,"1,4-pentadiene",A5370,19226181,-,S1,-2.09,log(mol/L),2.09,-log(M),Train,,-,,-,,,,-
CC1=C2C3=C(C=CC2=C(C4=C1C=CC=C4)C)C=CC=C3,-,-,172,"7,12-dimethylbenz(a)anthracene",A5370,19226181,-,S1,-7.02,log(mol/L),7.02,-log(M),Train,,-,,-,,,,-
CC1=CC2=C(C3=C1C=CC=C3)C=CC4=C2C=CC=C4,-,-,173,6-Methylchrysene,A5370,19226181,-,S1,-6.57,log(mol/L),6.57,-log(M),Train,,-,,-,,,,-
CC1=C(C2=C(C3=C1C4=C(C=C3)C=CC=C4)C=CC=C2)C,-,-,174,"5,6-Dimethylchrysene",A5370,19226181,-,S1,-7.01,log(mol/L),7.01,-log(M),Train,,-,,-,,,,-
CC1=CC2=C(C3=C1C4=C(C=C3)C=CC=C4)C=CC=C2,-,-,175,5-Methylchrysene,A5370,19226181,-,S1,-6.59,log(mol/L),6.59,-log(M),Train,,-,,-,,,,-
CC1=CC=CC2=C1C=CC3=C2C=CC=C3,-,-,176,1-Methylphenanthrene,A5370,19226181,-,S1,-5.85,log(mol/L),5.85,-log(M),Train,,-,,-,,,,-
CC1=C2C(=C(C3=C1C=CC=C3)C)C=CC=C2,-,-,177,"9,10-dimethylanthracene",A5370,19226181,-,S1,-6.57,log(mol/L),6.57,-log(M),Train,,-,,-,,,,-
CC1=CC=C(C2=C1C(=CC=C2)C)C,-,-,178,"1,4,5-trimethylnaphthalene",A5370,19226181,-,S1,-4.92,log(mol/L),4.92,-log(M),Train,,-,,-,,,,-
CC1=CC=C(C2=C1C=CC=C2)C,-,-,179,"1,4-dimethylnaphthalene",A5370,19226181,-,S1,-4.14,log(mol/L),4.14,-log(M),Train,,-,,-,,,,-
CC1=CC=CC2=C1C=CC=C2C,-,-,180,"1,5-dimethylnaphthalene",A5370,19226181,-,S1,-4.74,log(mol/L),4.74,-log(M),Train,,-,,-,,,,-
CC1=C2C(=CC3=C1C=CC=C3)C=CC=C2,-,-,181,9-methylanthracene,A5370,19226181,-,S1,-5.89,log(mol/L),5.89,-log(M),Train,,-,,-,,,,-
CC1=CC(=CC2=C1C=CC=C2)C,-,-,182,"1,3-dimethylnaphthalene",A5370,19226181,-,S1,-4.29,log(mol/L),4.29,-log(M),Train,,-,,-,,,,-
CC1=CC=CC2=C1C=CC=C2,-,-,183,1-methylnaphthalene,A5370,19226181,-,S1,-3.7,log(mol/L),3.7,-log(M),Train,,-,,-,,,,-
CC1=C(C(=C(C(=C1C)C)C)C)C,-,-,184,hexamethylbenzene,A5370,19226181,-,S1,-5.23,log(mol/L),5.23,-log(M),Train,,-,,-,,,,-
CC1=C(C(=CC(=C1C)C)C)C,-,-,185,pentamethylbenzene,A5370,19226181,-,S1,-4.0,log(mol/L),4.0,-log(M),Train,,-,,-,,,,-
CC1=C(C=C2C(=C1)C=CC=C2)C,-,-,186,"2,3-dimethylnaphthalene",A5370,19226181,-,S1,-4.72,log(mol/L),4.72,-log(M),Train,,-,,-,,,,-
CC1=C(C=C(C(=C1)C)C)C,-,-,187,"1,2,4,5-Tetramethylbenzene",A5370,19226181,-,S1,-4.59,log(mol/L),4.59,-log(M),Train,,-,,-,,,,-
CC1=C(C=CC(=C1)C)C,-,-,188,"1,2,4-trimethylbenzene",A5370,19226181,-,S1,-3.31,log(mol/L),3.31,-log(M),Train,,-,,-,,,,-
CC1=C(C=CC=C1C)C,-,-,189,"1,2,3-trimethylbenzene",A5370,19226181,-,S1,-3.2,log(mol/L),3.2,-log(M),Train,,-,,-,,,,-
CC1=C(C=CC=C1)C,-,-,190,o-Xylene,A5370,19226181,-,S1,-2.8,log(mol/L),2.8,-log(M),Train,,-,,-,,,,-
CC1=CC2=C(C3=C(C=C2)C=CC=C3)C=C1,-,-,191,2-Methylphenanthrene,A5370,19226181,-,S1,-5.84,log(mol/L),5.84,-log(M),Train,,-,,-,,,,-
CC1=CC2=C(C=C3C(=C2)C=CC=C3)C=C1,-,-,192,2-methylanthracene,A5370,19226181,-,S1,-6.96,log(mol/L),6.96,-log(M),Train,,-,,-,,,,-
CC1=CC2=C(C=C(C=C2)C)C=C1,-,-,193,"2,6-dimethylnaphthalene",A5370,19226181,-,S1,-4.89,log(mol/L),4.89,-log(M),Train,,-,,-,,,,-
CC1=CC2=C(C=C1)C=CC=C2,-,-,194,2-methylnaphthalene,A5370,19226181,-,S1,-3.77,log(mol/L),3.77,-log(M),Train,,-,,-,,,,-
CC1=CC(=CC(=C1)C)C,-,-,195,"1,3,5-trimethylbenzene",A5370,19226181,-,S1,-3.4,log(mol/L),3.4,-log(M),Train,,-,,-,,,,-
CC1=CC(=CC=C1)C,-,-,196,m-xylene,A5370,19226181,-,S1,-2.82,log(mol/L),2.82,-log(M),Train,,-,,-,,,,-
CC1=CC=C(C=C1)C2=CC=CC=C2,-,-,197,4-Methylbiphenyl,A5370,19226181,-,S1,-4.62,log(mol/L),4.62,-log(M),Train,,-,,-,,,,-
CC1=CC=C(C=C1)C,-,-,198,p-xylene,A5370,19226181,-,S1,-2.77,log(mol/L),2.77,-log(M),Train,,-,,-,,,,-
C1(=CC=CC=C1)C,-,-,199,Toluene,A5370,19226181,-,S1,-2.21,log(mol/L),2.21,-log(M),Train,,-,,-,,,,-
CC#C,-,-,200,Propyne,A5370,19226181,-,S1,-0.41,log(mol/L),0.41,-log(M),Train,,-,,-,,,,-
CC(=C)C(=C)C,-,-,201,"2,3-Dimethyl-1,3-Butadiene",A5370,19226181,-,S1,-2.4,log(mol/L),2.4,-log(M),Train,,-,,-,,,,-
CC(=C)C,-,-,202,2-Methylpropene,A5370,19226181,-,S1,-2.33,log(mol/L),2.33,-log(M),Train,,-,,-,,,,-
CC(=C)C=C,-,-,203,"2-methyl-1,3-butadiene",A5370,19226181,-,S1,-2.03,log(mol/L),2.03,-log(M),Train,,-,,-,,,,-
CC(=CC)C,-,-,204,2-Methy-2-Butene,A5370,19226181,-,S1,-2.56,log(mol/L),2.56,-log(M),Train,,-,,-,,,,-
C(C([H])([H])[H])([H])([H])[H],-,-,205,Ethane,A5370,19226181,-,S1,-1.36,log(mol/L),1.36,-log(M),Train,,-,,-,,,,-
CC=C,-,-,206,Propylene,A5370,19226181,-,S1,-1.08,log(mol/L),1.08,-log(M),Train,,-,,-,,,,-
C,-,-,207,Methane,A5370,19226181,-,S1,-0.9,log(mol/L),0.9,-log(M),Train,,-,,-,,,,-
C#C,-,-,208,Ethyne,A5370,19226181,-,S1,0.29,log(mol/L),-0.29,-log(M),Train,,-,,-,,,,-
C(C1=CC=CC=C1)C(C)C,-,-,209,isobutylbenzene,A5370,19226181,-,S1,-4.12,log(mol/L),4.12,-log(M),Train,,-,,-,,,,-
C(CCCCC)(C)C,-,-,210,2-Methylheptane,A5370,19226181,-,S1,-5.08,log(mol/L),5.08,-log(M),Train,,-,,-,,,,-
C(CCCC)(CC)C,-,-,211,3-Methylheptane,A5370,19226181,-,S1,-5.16,log(mol/L),5.16,-log(M),Train,,-,,-,,,,-
C(CCC)(C)C,-,-,212,2-methylpentane,A5370,19226181,-,S1,-3.74,log(mol/L),3.74,-log(M),Train,,-,,-,,,,-
C(CC)(CC)C,-,-,213,3-Methylpentane,A5370,19226181,-,S1,-3.68,log(mol/L),3.68,-log(M),Train,,-,,-,,,,-
C1(C(CC)C)=CC=CC=C1,-,-,214,2-butylbenzene,A5370,19226181,-,S1,-3.89,log(mol/L),3.89,-log(M),Train,,-,,-,,,,-
C(CC)(C)C,-,-,215,2-Methylbutane,A5370,19226181,-,S1,-3.18,log(mol/L),3.18,-log(M),Train,,-,,-,,,,-
C(=C)C=C,-,-,216,"1,3-Butadiene",A5370,19226181,-,S1,-1.87,log(mol/L),1.87,-log(M),Train,,-,,-,,,,-
C=CCC(C)C,-,-,217,4-methyl-1-pentene,A5370,19226181,-,S1,-3.24,log(mol/L),3.24,-log(M),Train,,-,,-,,,,-
C(CC(C)C)(C)C,-,-,218,"2,4-dimethylpentane",A5370,19226181,-,S1,-4.26,log(mol/L),4.26,-log(M),Train,,-,,-,,,,-
C(C)(C)C1=C(C=CC=C1)C,-,-,219,2-Isopropyltoluene,A5370,19226181,-,S1,-3.76,log(mol/L),3.76,-log(M),Train,,-,,-,,,,-
C(C)(C)C1=CC=C(C=C1)C,-,-,220,p-isopropyltoluene,A5370,19226181,-,S1,-3.77,log(mol/L),3.77,-log(M),Train,,-,,-,,,,-
CC(C)C1=CC=CC=C1,-,-,221,isopropylbenzene,A5370,19226181,-,S1,-3.27,log(mol/L),3.27,-log(M),Train,,-,,-,,,,-
C(C)(C)C,-,-,222,2-Methylpropane,A5370,19226181,-,S1,-2.55,log(mol/L),2.55,-log(M),Train,,-,,-,,,,-
C(C)(C)C=C,-,-,223,3-Methyl-1-Butene,A5370,19226181,-,S1,-2.73,log(mol/L),2.73,-log(M),Train,,-,,-,,,,-
C(C(C)C)(CC)C,-,-,224,"2,3-Dimethylpentane",A5370,19226181,-,S1,-4.28,log(mol/L),4.28,-log(M),Train,,-,,-,,,,-
C(C(C)C)(C)C,-,-,225,"2,3-Dimethylbutane",A5370,19226181,-,S1,-3.65,log(mol/L),3.65,-log(M),Train,,-,,-,,,,-
C(C(C)C)(C(C)C)C,-,-,226,"2,3,4-Trimethylpentane",A5370,19226181,-,S1,-4.8,log(mol/L),4.8,-log(M),Train,,-,,-,,,,-
ClC12C3(C4(C5(C(C1(C4(Cl)Cl)Cl)(C2(C(C35Cl)=O)Cl)Cl)Cl)Cl)Cl,-,-,227,Kepone,A5370,19226181,-,S1,-5.26,log(mol/L),5.26,-log(M),Train,,-,,-,,,,-
ClC12C3(C4(C5(C(C1(C(C35Cl)(Cl)Cl)Cl)(C2(C4(Cl)Cl)Cl)Cl)Cl)Cl)Cl,-,-,228,Mirex,A5370,19226181,-,S1,-6.8,log(mol/L),6.8,-log(M),Train,,-,,-,,,,-
ClC1=C2C(=C(C=C1OC)OC)C(C3(O2)C(CC(C=C3OC)=O)C)=O,-,-,229,Griseofulvin,A5370,19226181,-,S1,-4.61,log(mol/L),4.61,-log(M),Train,,-,,-,,,,-
ClC1=CC=C(C2=C1C(C3CC4C(C(=C3C2=O)O)(C(C(=C(C4N(C)C)O)C(=O)N)=O)O)(O)C)O,-,-,230,chlortetracycline,A5370,19226181,-,S1,-2.88,log(mol/L),2.88,-log(M),Train,,-,,-,,,,-
ClC1=CC=C(C2=C1C(C3CC4C(C(=C3C2=O)O)(C(C(=C(C4N(C)C)O)C(=O)N)=O)O)O)O,-,-,231,demeclocycline,A5370,19226181,-,S1,-2.52,log(mol/L),2.52,-log(M),Train,,-,,-,,,,-
ClC1=CC=CC2=C1C=CC=C2,-,-,232,1-chloronaphthalene,A5370,19226181,-,S1,-3.93,log(mol/L),3.93,-log(M),Train,,-,,-,,,,-
ClC1=C2C(=CC=C1)SC(N2CC(=O)O)=O,-,-,233,benazolin,A5370,19226181,-,S1,-2.61,log(mol/L),2.61,-log(M),Train,,-,,-,,,,-
ClC12C3C4C5OC5C(C3C(C1(Cl)Cl)(C(=C2Cl)Cl)Cl)C4,-,-,234,endrin,A5370,19226181,-,S1,-6.29,log(mol/L),6.29,-log(M),Train,,-,,-,,,,-
ClC12C3C4OC4C(C3C(C1(Cl)Cl)(C(=C2Cl)Cl)Cl)Cl,-,-,235,heptachlor epoxide,A5370,19226181,-,S1,-6.29,log(mol/L),6.29,-log(M),Train,,-,,-,,,,-
ClC12C3C(C(Cl)(C1(Cl)Cl)C(Cl)=C2Cl)C4CC3C=C4,-,-,236,aldrin,A5370,19226181,-,S1,-7.33,log(mol/L),7.33,-log(M),Train,,-,,-,,,,-
ClC12C3C(C(C1(Cl)Cl)(C(=C2Cl)Cl)Cl)CC(C3Cl)Cl,-,-,237,chlordane,A5370,19226181,-,S1,-6.86,log(mol/L),6.86,-log(M),Train,,-,,-,,,,-
ClC12C3C(C(C1(Cl)Cl)(C(=C2Cl)Cl)Cl)C=CC3,-,-,238,chlordene,A5370,19226181,-,S1,-5.64,log(mol/L),5.64,-log(M),Train,,-,,-,,,,-
ClC12C3C(C(C1(Cl)Cl)(C(=C2Cl)Cl)Cl)C=CC3Cl,-,-,239,heptachlor,A5370,19226181,-,S1,-6.32,log(mol/L),6.32,-log(M),Train,,-,,-,,,,-
ClC12C3C(C(C1(Cl)Cl)(C(=C2Cl)Cl)Cl)C=CC3O,-,-,240,1-hydroxychlordene,A5370,19226181,-,S1,-5.46,log(mol/L),5.46,-log(M),Train,,-,,-,,,,-
ClC1=C(C(=C(C2=C1N=CC=N2)Cl)Cl)Cl,-,-,241,chlorquinox,A5370,19226181,-,S1,-5.43,log(mol/L),5.43,-log(M),Train,,-,,-,,,,-
ClC1=C(C=C(C2=NSN=C12)Cl)Cl,-,-,242,"4,5,7-trichloro-2,1,3-benzothiadiazole",A5370,19226181,-,S1,-4.98,log(mol/L),4.98,-log(M),Train,,-,,-,,,,-
ClC1=C(C(=C(C(=C1Cl)Cl)C2=C(C(=C(C(=C2Cl)Cl)Cl)Cl)Cl)Cl)Cl,-,-,243,"2,2?,3,3?,4,4?,5,5?,6,6?-PCB",A5370,19226181,-,S1,-11.62,log(mol/L),11.62,-log(M),Train,,-,,-,,,,-
ClC1=C(C(=C(C(=C1Cl)Cl)C2=C(C(=C(C(=C2)Cl)Cl)Cl)Cl)Cl)Cl,-,-,244,"2,2?,3,3?,4,4?,5,5?,6-PCB",A5370,19226181,-,S1,-10.26,log(mol/L),10.26,-log(M),Train,,-,,-,,,,-
ClC1=C(C(=C(C(=C1Cl)Cl)C2=C(C(=CC(=C2Cl)Cl)Cl)Cl)Cl)Cl,-,-,245,"2,2?,3,3?,4,5,5?,6,6?-PCB",A5370,19226181,-,S1,-10.41,log(mol/L),10.41,-log(M),Train,,-,,-,,,,-
ClC1=C(C(=C(C(=C1Cl)Cl)C2=C(C=C(C=C2)Cl)Cl)Cl)Cl,-,-,246,"2,2',3,4,4',5',6-PCB",A5370,19226181,-,S1,-7.92,log(mol/L),7.92,-log(M),Train,,-,,-,,,,-
ClC1=C(C(=C(C(=C1Cl)Cl)C2=C(C=CC(=C2)Cl)Cl)Cl)Cl,-,-,247,"2,2?,3,4,5,5?,6-PCB",A5370,19226181,-,S1,-8.94,log(mol/L),8.94,-log(M),Train,,-,,-,,,,-
ClC1=C(C(=C(C(=C1Cl)Cl)C2=CC=CC=C2)Cl)Cl,-,-,248,"2,3,4,5,6-pcb",A5370,19226181,-,S1,-7.92,log(mol/L),7.92,-log(M),Train,,-,,-,,,,-
ClC1=C(C(=C(C(=C1Cl)Cl)O)Cl)Cl,-,-,249,Pentachlorophenol,A5370,19226181,-,S1,-4.28,log(mol/L),4.28,-log(M),Train,,-,,-,,,,-
ClC1=C(C(=C(C(=C1Cl)C#N)Cl)C#N)Cl,-,-,250,chlorothalonil,A5370,19226181,-,S1,-5.64,log(mol/L),5.64,-log(M),Train,,-,,-,,,,-
ClC1=C(C(=C(C(=C1Cl)OC)O)Cl)Cl,-,-,251,tetrachloroguaiacol,A5370,19226181,-,S1,-4.02,log(mol/L),4.02,-log(M),Train,,-,,-,,,,-
ClC1=C(C(=C(C=C1Cl)Cl)C2=C(C(=C(C=C2)Cl)Cl)Cl)Cl,-,-,252,"2,2?,3,3?,4,4?,6-PCB",A5370,19226181,-,S1,-8.3,log(mol/L),8.3,-log(M),Train,,-,,-,,,,-
ClC1=C(C(=C(C=C1Cl)Cl)C2=C(C=C(C(=C2)Cl)Cl)Cl)Cl,-,-,253,"2,2?,3,4,4?,5?,6-PCB",A5370,19226181,-,S1,-7.92,log(mol/L),7.92,-log(M),Train,,-,,-,,,,-
ClC1=C(C(=C(C=C1Cl)Cl)C2=C(C=CC=C2)Cl)Cl,-,-,254,"2,2?,3,4,6-PCB",A5370,19226181,-,S1,-7.43,log(mol/L),7.43,-log(M),Train,,-,,-,,,,-
ClC1=C(C(=C(C=C1Cl)Cl)C2=CC(=C(C=C2)Cl)Cl)Cl,-,-,255,"2,3,3?,4,4?6-PCB",A5370,19226181,-,S1,-7.66,log(mol/L),7.66,-log(M),Train,,-,,-,,,,-
ClC1=C(C(=C(C=C1Cl)Cl)O)Cl,-,-,256,"2,3,4,6-Tetrachlorophenol",A5370,19226181,-,S1,-3.1,log(mol/L),3.1,-log(M),Train,,-,,-,,,,-
ClC1=C(C(=C(C=C1)Cl)C(=O)O)OC,-,-,257,dicamba,A5370,19226181,-,S1,-1.7,log(mol/L),1.7,-log(M),Train,,-,,-,,,,-
ClC1=C(C(=CC(=C1Cl)C2=C(C(=C(C(=C2)Cl)Cl)Cl)Cl)Cl)Cl,-,-,258,"2,2?,3,3?,4,4?,5,5?-PCB",A5370,19226181,-,S1,-9.16,log(mol/L),9.16,-log(M),Train,,-,,-,,,,-
ClC1=C(C(=CC(=C1Cl)C2=C(C(=CC=C2)Cl)Cl)Cl)Cl,-,-,259,"2,2?,3,3?,4,5-PCB",A5370,19226181,-,S1,-8.42,log(mol/L),8.42,-log(M),Train,,-,,-,,,,-
ClC1=C(C(=CC(=C1Cl)C2=C(C=C(C=C2)Cl)Cl)Cl)Cl,-,-,260,"2,3',4,4',5-PCB",A5370,19226181,-,S1,-7.39,log(mol/L),7.39,-log(M),Train,,-,,-,,,,-
ClC1=C(C(=CC(=C1Cl)C2=C(C=CC(=C2)Cl)Cl)Cl)Cl,-,-,261,"2,2?,3,4,5,5?-PCB",A5370,19226181,-,S1,-7.68,log(mol/L),7.68,-log(M),Train,,-,,-,,,,-
ClC1=C(C(=CC(=C1Cl)C2=C(C=CC=C2)Cl)Cl)Cl,-,-,262,"2,2?,3,4,5-PCB",A5370,19226181,-,S1,-7.21,log(mol/L),7.21,-log(M),Train,,-,,-,,,,-
ClC1=C(C(=CC(=C1Cl)C2=CC(=C(C=C2)Cl)Cl)Cl)Cl,-,-,263,"2,3,3?,4,4?,5-PCB",A5370,19226181,-,S1,-7.82,log(mol/L),7.82,-log(M),Train,,-,,-,,,,-
ClC1=C(C(=CC(=C1Cl)C2=CC=CC=C2)Cl)Cl,-,-,264,"2,3,4,5-pcb",A5370,19226181,-,S1,-7.16,log(mol/L),7.16,-log(M),Train,,-,,-,,,,-
ClC1=C(C(=CC(=C1Cl)Cl)Cl)Cl,-,-,265,pentachlorobenzene,A5370,19226181,-,S1,-5.65,log(mol/L),5.65,-log(M),Train,,-,,-,,,,-
ClC1=C(C(=CC(=C1Cl)O)Cl)Cl,-,-,266,"2,3,4,5-Tetrachlorophenol",A5370,19226181,-,S1,-3.15,log(mol/L),3.15,-log(M),Train,,-,,-,,,,-
ClC1=C(C(=CC(=C1)Cl)Cl)C2=C(C=C(C=C2Cl)Cl)Cl,-,-,267,"2,2',4,4',6,6'-PCB",A5370,19226181,-,S1,-8.71,log(mol/L),8.71,-log(M),Train,,-,,-,,,,-
ClC1=C(C(=CC(=C1)Cl)Cl)C2=C(C=CC=C2Cl)Cl,-,-,268,"2,2,4,6,6?-PCB",A5370,19226181,-,S1,-7.32,log(mol/L),7.32,-log(M),Train,,-,,-,,,,-
ClC1=C(C(=CC(=C1)Cl)Cl)C2=CC=CC=C2,-,-,269,"2,4,6-pcb",A5370,19226181,-,S1,-6.14,log(mol/L),6.14,-log(M),Train,,-,,-,,,,-
ClC1=C(C(=CC(=C1)Cl)Cl)O,-,-,270,"2,4,6-trichlorophenol",A5370,19226181,-,S1,-2.34,log(mol/L),2.34,-log(M),Train,,-,,-,,,,-
ClC1=C(C(=CC=C1Cl)C2=C(C(=C(C=C2)Cl)Cl)Cl)Cl,-,-,271,"2,2?,3,3?,4,4?-PCB",A5370,19226181,-,S1,-8.01,log(mol/L),8.01,-log(M),Train,,-,,-,,,,-
ClC1=C(C(=CC=C1Cl)C2=C(C(=CC=C2)Cl)Cl)Cl,-,-,272,"1,2,3-trichloro-4-(2,3-dichlorophenyl)benzene",A5370,19226181,-,S1,-7.05,log(mol/L),7.05,-log(M),Train,,-,,-,,,,-
ClC1=C(C(=CC=C1Cl)C2=C(C=C(C(=C2)Cl)Cl)Cl)Cl,-,-,273,"2,2?,3,4,4?,5?-PCB",A5370,19226181,-,S1,-8.32,log(mol/L),8.32,-log(M),Train,,-,,-,,,,-
ClC1=C(C(=CC=C1Cl)C2=C(C=C(C=C2)Cl)Cl)Cl,-,-,274,"2,3',4,4'-PCB",A5370,19226181,-,S1,-7.8,log(mol/L),7.8,-log(M),Train,,-,,-,,,,-
ClC1=C(C(=CC=C1Cl)C2=C(C=CC(=C2)Cl)Cl)Cl,-,-,275,"2,2?,3,4,5?-PCB",A5370,19226181,-,S1,-7.91,log(mol/L),7.91,-log(M),Train,,-,,-,,,,-
ClC1=C(C(=CC=C1Cl)C2=CC(=C(C=C2)Cl)Cl)Cl,-,-,276,"2,2?,3,3?,4-PCB",A5370,19226181,-,S1,-7.05,log(mol/L),7.05,-log(M),Train,,-,,-,,,,-
ClC1=C(C(=CC=C1Cl)Cl)Cl,-,-,277,"1,2,3,4-tetrachlorobenzene",A5370,19226181,-,S1,-4.57,log(mol/L),4.57,-log(M),Train,,-,,-,,,,-
ClC1=C(C(=CC=C1Cl)O)Cl,-,-,278,"2,3,4-Trichlorophenol",A5370,19226181,-,S1,-2.67,log(mol/L),2.67,-log(M),Train,,-,,-,,,,-
ClC1=C(C(=CC=C1)Cl)C2=C(C=CC(=C2)Cl)Cl,-,-,279,"2,2?,5,6?-PCB",A5370,19226181,-,S1,-6.8,log(mol/L),6.8,-log(M),Train,,-,,-,,,,-
ClC1=C(C(=CC=C1)Cl)C2=C(C=CC=C2Cl)Cl,-,-,280,"2,2?,6,6?-PCB",A5370,19226181,-,S1,-7.39,log(mol/L),7.39,-log(M),Train,,-,,-,,,,-
ClC1=C(C(=CC=C1)Cl)C2=CC=C(C=C2)Cl,-,-,281,"2,4,6-pcb",A5370,19226181,-,S1,-6.14,log(mol/L),6.14,-log(M),Train,,-,,-,,,,-
ClC1=C(C(=CC=C1)Cl)C2=CC=CC=C2,-,-,282,"2,6-pcb",A5370,19226181,-,S1,-5.21,log(mol/L),5.21,-log(M),Train,,-,,-,,,,-
ClC1=C(C(=CC=C1)Cl)CO,-,-,283,"2,6-dichlorobenzyl alcohol",A5370,19226181,-,S1,-2.1,log(mol/L),2.1,-log(M),Train,,-,,-,,,,-
ClC1=C(C(=CC=C1)Cl)C#N,-,-,284,"2,6-dichlorobenzonitrile",A5370,19226181,-,S1,-4.24,log(mol/L),4.24,-log(M),Train,,-,,-,,,,-
ClC1=C(C(=CC=C1)Cl)O,-,-,285,"2,6-Dichlorophenol",A5370,19226181,-,S1,-1.79,log(mol/L),1.79,-log(M),Train,,-,,-,,,,-
ClC1=CC2=C(C=C1S(=O)(=O)N)S(NCN2)(=O)=O,-,-,286,hydrochlorthiazide,A5370,19226181,-,S1,-2.62,log(mol/L),2.62,-log(M),Train,,-,,-,,,,-
ClC1=CC2=C(C=C1S(=O)(=O)N)C(N(C(N2)C)C3=C(C=CC=C3)C)=O,-,-,287,Metolazone,A5370,19226181,-,S1,-3.78,log(mol/L),3.78,-log(M),Train,,-,,-,,,,-
ClC1=CC2=C(C=C1S(=O)(=O)N)C(NC(N2)CC)=O,-,-,288,quinethazone,A5370,19226181,-,S1,-3.29,log(mol/L),3.29,-log(M),Train,,-,,-,,,,-
ClC1=CC2=C(C=C1S(=O)(=O)N)S(NC=N2)(=O)=O,-,-,289,Chlorothiazide,A5370,19226181,-,S1,-3.05,log(mol/L),3.05,-log(M),Train,,-,,-,,,,-
ClC1=C(C=C(C(=C1C2=C(C(=CC(=C2Cl)Cl)Cl)Cl)Cl)Cl)Cl,-,-,290,"2,2?,3,3?,5,5?,6,6?-PCB",A5370,19226181,-,S1,-9.15,log(mol/L),9.15,-log(M),Train,,-,,-,,,,-
ClC1=C(C=C(C(=C1C2=C(C(=CC=C2)Cl)Cl)Cl)Cl)Cl,-,-,291,"2,2',3,3',5,6-PCB",A5370,19226181,-,S1,-8.6,log(mol/L),8.6,-log(M),Train,,-,,-,,,,-
ClC1=C(C=C(C(=C1C2=C(C=CC(=C2)Cl)Cl)Cl)Cl)Cl,-,-,292,"2,2?,3,5,5?,6-PCB",A5370,19226181,-,S1,-7.42,log(mol/L),7.42,-log(M),Train,,-,,-,,,,-
ClC1=C(C=C(C(=C1O)Cl)Cl)Cl,-,-,293,"2,3,5,6-Tetrachlorophenol",A5370,19226181,-,S1,-3.37,log(mol/L),3.37,-log(M),Train,,-,,-,,,,-
ClC1=C(C=C(C(=C1)Cl)C2=C(C=C(C(=C2)Cl)Cl)Cl)Cl,-,-,294,"2,2?,4,4?5,5?-PCB",A5370,19226181,-,S1,-8.56,log(mol/L),8.56,-log(M),Train,,-,,-,,,,-
ClC1=C(C=C(C(=C1)Cl)C2=C(C=CC(=C2)Cl)Cl)Cl,-,-,295,"2,2?,4,5,5?-PCB",A5370,19226181,-,S1,-7.89,log(mol/L),7.89,-log(M),Train,,-,,-,,,,-