SMILES,CASRN,EXTERNALID,N,NAME,ARTICLEID,PUBMEDID,PAGE,TABLE,Solubility_log(mol/L),UNIT {Water solubility},"Water solubility {measured, converted}",UNIT {Water solubility}.1,Dataset,Temperature,UNIT {Temperature},Ionic strength,UNIT {Ionic strength},comment (chemical),source,pH,UNIT {pH}
O=C(C1=NN(C(=N1)C(Cl)(Cl)Cl)C2=CC=C(C=C2Cl)Cl)OCC,103112-35-2,-,-,Fenchlorazole-ethyl,A2330,-,-,-,0.9,mg/L,5.652,-log(M),,20.0,?C,,-,,,,-
ClC1=CC(Cl)=CC=C1C(CN2N=CN=C2)COC(F)(F)C(F)F,112281-77-3,-,-,Tetraconazole,A2330,-,-,-,156.0,mg/L,3.378,-log(M),,20.0,?C,,-,,,,-
C1=CC(Cl)=CC=C1CCC(C#N)(C2=CC=CC=C2)CN3N=CN=C3,114369-43-6,-,-,Fenbuconazole,A2330,-,-,-,0.2,mg/L,6.226,-log(M),,25.0,?C,,-,,,,-
C1=CC(Cl)=CC(Cl)=C1C2(CN3N=CN=C3)CC(Br)CO2,116255-48-2,-,-,Bromuconazole,A2330,-,-,-,50.0,mg/L,3.877,-log(M),,25.0,?C,,-,,,,-
N1=C(C(=O)N)N=C(C2=CC=CC=C2)N1C3=CC(COCC(F)(F)C(F)(F)F)=C(Cl)C=C3,119126-15-7,-,-,Flupoxam,A2330,-,-,-,1.0,mg/L,5.663,-log(M),,20.0,?C,,-,,,,-
O1CC(C)OC1(CN2N=CN=C2)C3=C(Cl)C=C(OC4=CC=C(Cl)C=C4)C=C3,119446-68-3,-,-,Difenoconazole,A2330,-,-,-,15.0,mg/L,4.433,-log(M),,25.0,?C,,-,,,,-
ClC1=CC(Cl)=C(NS(=O)(=O)C)C=C1N2N=C(C)N(C(F)F)C2=O,122836-35-5,-,-,Sulfentrazone,A2330,-,-,-,780.0,mg/L,2.696,-log(M),,25.0,?C,,-,,,,-
C1=CC(Cl)=CC=C1CC2CCC(C)(C)C2(O)CN3N=CN=C3,125116-23-6,-,-,Metconazole,A2330,-,-,-,15.0,mg/L,4.329,-log(M),,20.0,?C,,-,,,,-
C1=CC(Cl)=CC=C1CC2CCC(C(C)C)C2(O)CN3N=CN=C3,125225-28-7,-,-,IPCONAZOLE,A2330,-,-,-,6.93,mg/L,4.683,-log(M),,20.0,?C,,-,,,,-
CC1=CC(C)=CC(C)=C1S(=O)(=O)C2=NN(C(=O)N(CC)CC)C=N2,125306-83-4,-,-,Cafenstrole,A2330,-,-,-,2.5,mg/L,5.147,-log(M),,20.0,?C,,-,,,,-
FC1=CC(Cl)=C(CC(Cl)C(=O)OCC)C=C1N2C(=O)N(C(F)F)C(C)=N2,128639-02-1,-,-,Carfentrazone-ethyl,A2330,-,-,-,22.0,mg/L,4.273,-log(M),,25.0,?C,,-,,,,-
C1=CC(Cl)=CC=C1C2(O)CCCCCC2N3N=CN=C3,129586-32-9,-,-,SSF-109 FUNGICIDE,A2330,-,-,-,125.0,mg/L,3.368,-log(M),,25.0,?C,,-,,,,-
C1=CC(Cl)=CC=C1C=C2CCC(C)(C)C2(O)CN3N=CN=C3,131983-72-7,-,-,Triticonazole,A2330,-,-,-,7.0,mg/L,4.657,-log(M),,10.0,?C,,-,,,,-
COC=1C=C(OC)N2N=C(S(=O)(=O)NC3=C(Cl)C(C)=CC=C3Cl)N=C2N1,139528-85-1,-,-,Metosulam,A2330,-,-,-,200.0,mg/L,3.32,-log(M),,20.0,?C,,-,,,,-
COC(=O)C1=CC=CC(Cl)=C1NS(=O)(=O)C2=NN3C(OCC)=NC(F)=CC3=N2,147150-35-4,-,-,CLORANSULAM,A2330,-,-,-,16.0,mg/L,4.429,-log(M),,25.0,?C,,-,,,,-
ClC1=CC(Cl)=CC=C1C2(CN3N=CN=C3)OC(CCC)CO2,60207-90-1,-,-,Propiconazole,A2970,-,-,-,110.0,mg/L,3.493,-log(M),,,-,,-,,,,-
FC(F)C,75-37-6,-,-,"1,1-Difluoroethane",A2924,-,-,-,3200.0,mg/L,1.315,-log(M),,21.0,?C,,-,,,,-
FC(F)(F)Br,75-63-8,-,-,Bromotrifluoromethane,A2924,-,-,-,320.0,mg/L,2.668,-log(M),,25.0,?C,,-,,,,-
C(F)(F)(F)F,75-73-0,-,-,Tetrafluoromethane,A2924,-,-,-,18.8,mg/L,3.67,-log(M),,25.0,?C,,-,,,,-
FC(F)(F)CCl,75-88-7,-,-,"1,1,1-TRIFLUORO-2-CHLOROETHANE",A2937,-,-,-,9200.0,mg/L,1.11,-log(M),,25.0,?C,,-,,,,-
O=C(O)C(F)(F)F,76-05-1,-,-,Trifluoroacetic acid,A2900,-,-,-,1000000.0,mg/L,-0.943,-log(M),,20.0,?C,,-,,,,-
FC(F)(C(F)(F)Cl)Cl,76-14-2,-,-,"1,2-dichlorotetrafluoroethane",A2900,-,-,-,130.0,mg/L,3.119,-log(M),,25.0,?C,,-,,,,-
FC(F)(F)C(F)(F)Cl,76-15-3,-,-,Chloropentafluoroethane,A2924,-,-,-,58.0,mg/L,3.425,-log(M),,25.0,?C,,-,,,,-
FC(F)(F)C1=CC=CC=C1,98-08-8,-,-,benzotrifluoride,A2977,-,-,-,140.0,mg/L,3.019,-log(M),,25.0,?C,,-,,,,-
OCC=C(CCC=C(C)C)C,106-24-1,-,-,GERANIOL,A2977,-,-,-,100.0,mg/L,3.188,-log(M),,25.0,?C,,-,,,,-
OC1=CC=C(Br)C=C1,106-41-2,-,-,p-Bromophenol,A2977,-,-,-,14000.0,mg/L,1.092,-log(M),,25.0,?C,,-,,,,-
FC(F)=C(F)F,116-14-3,-,-,Tetrafluoroethylene,A2924,-,-,-,159.0,mg/L,2.799,-log(M),,25.0,?C,,-,,,,-
O=C(OCC1=CC=CC=C1)C,140-11-4,-,-,Benzyl acetate,A2977,-,-,-,3100.0,mg/L,1.685,-log(M),,25.0,?C,,-,,,,-
OC1=CC=CC(Br)=C1,591-20-8,-,-,m-Bromophenol,A2977,-,-,-,23000.0,mg/L,0.8763,-log(M),,25.0,?C,,-,,,,-
C1(=CC=C(C(Br)=C1)Br)Br,615-54-3,-,-,"1,2,4-tribromobenzene",A2937,-,-,-,4.9,mg/L,4.808,-log(M),,25.0,?C,,-,,,,-
C1(=C(C=CC=C1)Br)Cl,694-80-4,-,-,2-BROMOCHLOROBENZENE,A2937,-,-,-,44.9,mg/L,3.63,-log(M),,25.0,?C,,-,,,,-
ClC1=CC(Cl)=CC=C1C2(CN3N=CN=C3)OC(CCC)CO2,60207-90-1,-,-,Propiconazole,A2922,2205893,-,-,110.0,mg/L,3.493,-log(M),,20.0,?C,,-,,,,-
CCC1CCOC(CN2C=NC=N2)(O1)C3=CC=C(Cl)C=C3Cl,60207-93-4,-,,-,A2922,2205893,-,,80.0,mg/L,3.631,-log(M),,20.0,?C,,-,,,,-
C(Cl)(C(F)(F)F)=CC1C(C)(C)C1C(=O)OCC2=C(F)C(F)=C(C)C(F)=C2F,79538-32-2,-,-,Tetrafluthrin,A2922,2205893,-,-,0.02,mg/L,7.321,-log(M),,20.0,?C,,-,,,,-
OCCC1=CC=CC=C1,60-12-8,-,-,2-phenylethanol,A3511,-,-,-,22200.0,mg/L,0.7406,-log(M),,25.0,?C,,-,,,,-
N1(N=C(N=C1N([H])[H])[H])[H],61-82-5,-,,Amitrole,A2330,-,-,,280000.0,mg/L,-0.5225,-log(M),,25.0,?C,,-,,,,-
FC(F)(Cl)C,75-68-3,-,-,"1-CHLORO-1,1-DIFLUOROETHANE",A2936,-,-,-,1400.0,mg/L,1.856,-log(M),,25.0,?C,,-,,,,-
FC(F)(C(Cl)(Cl)Cl)Cl,76-11-9,-,-,"1,1,1,2-TETRACHLORO-2,2-DIFLUOROETHANE",A3517,-,-,-,100.0,mg/L,3.309,-log(M),,25.0,?C,,-,,,,-
OC1=CC=C(C=C1)C(C2=CC=C(O)C=C2)(C)C,80-05-7,-,-,diphenylolpropane,A3512,-,-,-,120.0,mg/L,3.279,-log(M),,25.0,?C,,-,,,,-
S=P(OC)(OC)SCN1N=NC2=CC=CC=C2C1=O,86-50-0,-,-,methyl azinphos,A3493,-,-,-,20.9,mg/L,4.181,-log(M),,20.0,?C,,-,,,,-
C1(=C(C(=C(C(Br)=C1Br)Br)Br)Br)Br,87-82-1,-,-,hexabromobenzene,A3501,-,-,-,1.6E-4,mg/L,9.537,-log(M),,25.0,?C,,-,,,,-
O=C(O)C1=C(C=CC=C1)Br,88-65-3,-,-,O-BROMOBENZOIC ACID,A3487,-,-,-,1860.0,mg/L,2.034,-log(M),,25.0,?C,,-,,,,-
FC(F)(F)C1=CC=CC(N)=C1,98-16-8,-,-,3-trifluoromethylaniline,A3490,-,-,-,5460.0,mg/L,1.47,-log(M),,25.0,?C,,-,,,,-
O=CC=CC1=CC=CC=C1,104-55-2,-,-,3-Phenyl-2-propenal,A3511,-,-,-,1420.0,mg/L,1.969,-log(M),,25.0,?C,,-,,,,-
C1(=CC=C(C=C1)Br)C,106-38-7,-,-,p-bromotoluene,A3484,-,-,-,110.0,mg/L,3.192,-log(M),,25.0,?C,,-,,,,-
C1(=CC=CC(Br)=C1)Cl,108-37-2,-,-,m-Bromochlorobenzene,A3484,-,-,-,118.0,mg/L,3.21,-log(M),,25.0,?C,,-,,,,-
C1(=CC=CC=C1)Br,108-86-1,-,-,bromobenzene,A3520,-,-,-,446.0,mg/L,2.547,-log(M),,30.0,?C,,-,,,,-
O=C(C=CC1C(=CCCC1(C)C)C)C,127-41-3,-,,alpha-ionone,A3503,-,-,,106.0,ppm,3.259,-log(M),,25.0,?C,,-,,,,-
N1=CC2=C(N=C1)N=NN2,273-40-5,-,,"1H-1,2,3-Triazolo[4,5-d]pyrimidine",A2907,-,-,,71000.0,mg/L,0.2319,-log(M),,20.0,?C,,-,,,,-
O=C(OCC)CC(=O)C(F)(F)F,372-31-6,-,-,"Butanoic acid, 4,4,4-trifluoro-3-oxo-, ethyl est",A2907,-,-,-,8000.0,mg/L,1.362,-log(M),,,-,,-,,,,-
C1(=C(C=CC=C1)Br)Br,583-53-9,-,-,o-Dibromobenzene,A3484,-,-,-,74.6,mg/L,3.5,-log(M),,25.0,?C,,-,,,,-
O=C(C1=CC=C(C=C1Br)C(=O)O)O,586-35-6,-,-,"1,4-Benzenedicarboxylic acid, 2-bromo-",A2907,-,-,-,1800.0,mg/L,2.134,-log(M),,24.0,?C,,-,,,,-
C1(=CC=C(C=C1)Br)I,589-87-7,-,-,4-BROMOIODOBENZENE,A3518,-,-,-,7.79,mg/L,4.56,-log(M),,25.0,?C,,-,,,,-
BrC1=C(C=CC=C1Br)Br,608-21-9,-,-,"1,2,3-tribromobenzene",A3490,-,-,-,2.87,mg/L,5.04,-log(M),,25.0,?C,,-,,,,-
C1(=CC(=CC(Br)=C1)Br)Br,626-39-1,-,-,"1,3,5-Tribromobenzene",A3484,-,-,-,0.79,mg/L,5.6,-log(M),,25.0,?C,,-,,,,-
O=C(C1=C(C=C(C=C1Br)Br)Br)O,633-12-5,-,-,"Benzoic acid, 2,4,6-tribromo-",A2907,-,-,-,3500.0,mg/L,2.011,-log(M),,15.0,?C,,-,,,,-
OCC1=CC=C(Br)C=C1,873-75-6,-,-,"Benzenemethanol, 4-bromo-",A2907,-,-,-,2200.0,mg/L,1.929,-log(M),,20.0,?C,,-,,,,-
O=S(=O)(C1=CC(=CC=C1N)Br)O,1576-59-6,-,-,"Benzenesulfonic acid, 2-amino-5-bromo-",A2907,-,-,-,595.0,mg/L,2.627,-log(M),,22.0,?C,,-,,,,-
OC1=C(Br)C=C(C#N)C=C1Br,1689-84-5,-,-,bromoxynil,A3372,-,-,-,130.0,mg/L,3.328,-log(M),,25.0,?C,,-,,,,-
O=CC1=C(O)C=CC(=C1)Br,1761-61-1,-,-,"Benzaldehyde, 5-bromo-2-hydroxy-",A2907,-,-,-,100.0,mg/L,3.303,-log(M),,15.0,?C,,-,,,,-
NC(=O)NC1=CC=C(Br)C=C1,1967-25-5,-,-,P-BROMOPHENYLUREA,A2907,-,-,-,5000.0,mg/L,1.634,-log(M),,25.0,?C,,-,,,,-
CCC1=CC=CC=C1Br,1973-22-4,-,-,1-Bromo-2-ethylbenzene,A3484,-,-,-,39.6,mg/L,3.67,-log(M),,25.0,?C,,-,,,,-
COP(=S)(OC)OC1=CC(Cl)=C(Br)C=C1Cl,2104-96-3,-,-,bromophos,A3497,-,-,-,0.3,mg/L,6.086,-log(M),,20.0,?C,,-,,,,-
O=C(C1=CC=CC=C1C(=O)O)C2=CC=C(C=C2)Br,2159-40-2,-,-,"Benzoic acid, 2-(4-bromobenzoyl)-",A2907,-,-,-,300.0,mg/L,3.007,-log(M),,30.0,?C,,-,,,,-
S=P(OCC)(OCC)SCN1N=NC2=CC=CC=C2C1=O,2642-71-9,-,-,Azinphos Ethyl,A3493,-,-,-,10.5,mg/L,4.517,-log(M),,20.0,?C,,-,,,,-
CCOP(=S)(OCC)OC1=CC(Cl)=C(Br)C=C1Cl,4824-78-6,-,-,Bromophos ethyl,A3497,-,-,-,0.44,mg/L,5.952,-log(M),,20.0,?C,,-,,,,-
O=C(C1=CC(=CC=C1O)N2N=C3C=CC=CC3=N2)O,6245-33-6,-,-,"Salicylic acid, 5-(2H-benzotriazol-2-yl)-",A2907,-,-,-,250.0,mg/L,3.009,-log(M),,15.0,?C,,-,,,,-
N(=O)(=O)C1=C(C=CC(=C1)C(=O)O)Br,6319-40-0,-,-,"Benzoic acid, 4-bromo-3-nitro-",A2907,-,-,-,265.0,mg/L,2.968,-log(M),,25.0,?C,,-,,,,-
CC(C)C1=CC=CC=C1Br,7073-94-1,-,-,"BENZENE, 1-BROMO-2-(1-METHYLETHYL)-",A3484,-,-,-,12.9,mg/L,4.188,-log(M),,25.0,?C,,-,,,,-
C1=C(Br)C(O)=C(Br)C=C1CC(NC(=O)C)C(=O)O,10346-50-6,-,-,"L-Tyrosine, N-acetyl-3,5-dibromo-",A2907,-,-,-,2500.0,mg/L,2.183,-log(M),,25.0,?C,,-,,,,-
NC1=C(Br)C=CC(N(=O)=O)=C1,10403-47-1,-,-,"Benzenamine, 2-bromo-5-nitro-",A2907,-,-,-,60.0,mg/L,3.558,-log(M),,25.0,?C,,-,,,,-
BrC1=CC=C(C=C1C)O,14472-14-1,-,-,"Phenol, 4-bromo-3-methyl-",A2907,-,-,-,1700.0,mg/L,2.041,-log(M),,19.0,?C,,-,,,,-
O=C1N(C(=O)NN1C2=CC=CC=C2)C,14500-23-3,-,-,"1,2,4-Triazolidine-3,5-dione, 4-methyl-1-phenyl-",A2907,-,-,-,200.0,mg/L,2.98,-log(M),,,-,,-,,,,-
OCC1=CC=CC=C1Br,18982-54-2,-,-,"Benzenemethanol, 2-bromo-",A2907,-,-,-,1300.0,mg/L,2.158,-log(M),,20.0,?C,,-,,,,-
OC(=O)C1=C(Cl)C=CC(Br)=C1,21739-92-4,-,-,"Benzoic acid, 5-bromo-2-chloro-",A2907,-,-,-,2630.0,mg/L,1.952,-log(M),,21.0,?C,,-,,,,-
C(F)(F)C(F)(F)C(=O)O[Na],22898-01-7,-,-,"Propanoic acid, 2,2,3,3-tetrafluoro-, sodium sal",A3475,-,-,-,22000.0,mg/L,0.8829,-log(M),,20.0,?C,,-,,,,-
CCOP(=S)(OCC)OC=1N=CN(N1)C2=CC=CC=C2,24017-47-8,-,-,Triazophos,A3475,-,-,-,39.0,mg/L,3.905,-log(M),,20.0,?C,,-,,,,-
CC(=O)NC1=C(C)C=C(Br)C=C1,24106-05-6,-,-,2-METHYL-4-BROMOACETANILIDE,A2907,-,-,-,4000.0,mg/L,1.756,-log(M),,20.0,?C,,-,,,,-
BrC1=C(C=CC=C1Br)Br,28779-08-0,-,-,TRIBROMOBENZENE,A3487,-,-,-,40.0,mg/L,3.896,-log(M),,20.0,?C,,-,,,,-
O=C(C1=CC=C(C(=C1)Br)O)OC,29415-97-2,-,-,"Benzoic acid, 3-brom-4-hydroxy-, methyl ester",A2907,-,-,-,158.0,mg/L,3.165,-log(M),,30.0,?C,,-,,,,-
O=C(O)C=CC1=CC=CC(Br)=C1,32862-97-8,-,-,M-BROMOCINNAMIC ACID,A3487,-,-,-,525.0,mg/L,2.636,-log(M),,25.0,?C,,-,,,,-
OC(=O)C1=C(C(=O)O)C(C(=O)O)=CC(Br)=C1,34163-34-3,-,-,"1,2,3-Benzenetricarboxylic acid, 5-bromo-",A2907,-,-,-,10300.0,mg/L,1.448,-log(M),,23.0,?C,,-,,,,-
BrC1=CC(Br)=C(C(Br)=C1)C2=C(Br)C=C(Br)C=C2Br,36355-01-8,-,-,HEXABROMOBIPHENYL,A3519,-,-,-,0.011,mg/L,7.756,-log(M),,25.0,?C,,-,,,,-
OC(=O)COC1=C(Br)C=C(C)C=C1C,38206-98-3,-,-,"Acetic acid, (2-bromo-4,6-dimethylphenoxy)-",A2907,-,-,-,195.0,mg/L,3.123,-log(M),,20.0,?C,,-,,,,-
C1CCCCC1[Sn](C2CCCCC2)(C3CCCCC3)N4N=CN=C4,41083-11-8,-,-,Azocyclotin,A3475,-,-,-,0.12,mg/L,6.561,-log(M),,20.0,?C,,-,,,,-
CCOP(=S)(OCC)OC1=NN(C(C)C)C(Cl)=N1,42509-80-8,-,-,Isazofos,A3491,-,-,-,69.0,mg/L,3.658,-log(M),,20.0,?C,,-,,,,-
N(=O)(=O)NC1=C(C=CC=C1Br)Br,54381-71-4,-,-,"Benzenamine, 2,6-dibromo-N-nitro-",A2907,-,-,-,715.0,mg/L,2.617,-log(M),,12.0,?C,,-,,,,-
O=S(=O)(C1=C(C=C(C(=C1Br)N)Br)Br)O,58585-89-0,-,-,"Benzenesulfonic acid, 3-amino-2,4,6-tribromo-",A2907,-,-,-,133000.0,mg/L,0.4888,-log(M),,22.0,?C,,-,,,,-
N1=CN=CN1CC(C2=C(Cl)C=C(Cl)C=C2)CCC,66246-88-6,-,-,Penconazole,A3475,-,-,-,73.0,mg/L,3.59,-log(M),,20.0,?C,,-,,,,-
C1CCC2=NN(C3=CC(OCC#C)=C(Cl)C=C3Cl)C(=O)N2C1,68049-83-2,-,-,Azafenidin,A3475,-,-,-,16.0,mg/L,4.325,-log(M),,,-,,-,,,,-
N1=CN=CN1CC(O)(C2=CC=C(F)C=C2)C3=CC=CC=C3F,76674-21-0,-,-,FLUTRIAFOL (PP450),A3475,-,-,-,130.0,mg/L,3.365,-log(M),,20.0,?C,,-,,,,-
C1=NC=NN1C(C(O)C(C)(C)C)CC2=CC=C(Cl)C=C2,76738-62-0,-,-,Paclobutrazol,A3480,-,-,-,26.0,mg/L,4.053,-log(M),,20.0,?C,,-,,,,-
ClC1=C(C=CC(=C1)Cl)C(CN2N=CN=C2)(O)CCCC,79983-71-4,-,-,Hexaconazole,A3475,-,-,-,17.0,mg/L,4.267,-log(M),,20.0,?C,,-,,,,-
C1=NC=NN1C(C(O)C(C)(C)C)=CC2=CC=C(Cl)C=C2,83657-17-4,-,-,Uniconazole-P,A3475,-,-,-,8.41,mg/L,4.54,-log(M),,25.0,?C,,-,,,,-
ClC1=CC(Cl)=CC=C1C=C(C(O)C(C)(C)C)N2N=CN=C2,83657-24-3,-,-,Diniconazole,A3480,-,-,-,4.0,mg/L,4.911,-log(M),,25.0,?C,,-,,,,-
C1=CC(F)=CC=C1[Si](C)(C2=CC=C(F)C=C2)CN3N=CN=C3,85509-19-9,-,-,Flusilazole,A3475,-,-,-,54.0,mg/L,3.766,-log(M),,20.0,?C,,-,,,,-
FC1=CC=CC(F)=C1C(=O)NC(=O)NC2=CC(Cl)=C(OC(F)(F)C(F)F)C(Cl)=C2,86479-06-3,-,-,Hexaflumuron,A3475,-,-,-,0.027,mg/L,7.232,-log(M),,18.0,?C,,-,,,,-
ClC1=CC(Cl)=CC=C1N=C(SCC2=CC=C(Cl)C=C2)CN3N=CN=C3,86598-92-7,-,-,Imibenconazole,A3480,-,-,-,1.7,mg/L,5.384,-log(M),,20.0,?C,,-,,,,-
C1=CC(Cl)=CC=C1C(C#N)(CCCC)CN2N=CN=C2,88671-89-0,-,-,MYCLOBUTANIL,A3480,-,-,-,142.0,mg/L,3.308,-log(M),,25.0,?C,,-,,,,-
C1=CC(Cl)=CC=C1C(O)(C(C)C2CC2)CN3N=CN=C3,94361-06-5,-,-,Cyproconazole,A3475,-,-,-,140.0,mg/L,3.319,-log(M),,25.0,?C,,-,,,,-
OS(=O)(=O)C1=C(Br)C(Br)=C(Br)C(Br)=C1Br,98137-88-3,-,-,"Benzenesulfonic acid, pentabromo-",A2907,-,-,-,5450.0,mg/L,2.006,-log(M),,10.0,?C,,-,,,,-
O=C(C1=NN(C(=N1)C(Cl)(Cl)Cl)C2=CC=C(C=C2Cl)Cl)OCC,103112-35-2,-,-,Fenchlorazole-ethyl,A3486,-,-,-,0.9,mg/L,5.652,-log(M),,20.0,?C,,-,,,,-
BrC1=CC=C(C2=CC=C(C3CC(C=4C(C3)=CC=CC4)C=5C(=O)C=6C(SC5O)=CC=CC6)C=C2)C=C1,104653-34-1,-,,Difethialone,A3480,-,-,,0.39,mg/L,6.141,-log(M),,25.0,?C,,-,,,,-
C1=CC(F)=CC=C1C2(CN3N=CN=C3)OC2C4=CC=CC=C4Cl,106325-08-0,-,-,BAS 480F,A3480,-,-,-,6.63,mg/L,4.697,-log(M),,20.0,?C,,-,,,,-
C1=CC(Cl)=CC=C1CCC(O)(C(C)(C)C)CN2N=CN=C2,107534-96-3,-,-,Tebuconazole,A3475,-,-,-,36.0,mg/L,3.932,-log(M),,20.0,?C,,-,,,,-
CCOC(=O)CSC1=NC(C(C)(C)C)=NN1C(=O)N(C)C,112143-82-5,-,-,Triazamate,A3475,-,-,-,433.0,mg/L,2.861,-log(M),,25.0,?C,,-,,,,-
ClC1=CC(Cl)=CC=C1C(CN2N=CN=C2)COC(F)(F)C(F)F,112281-77-3,-,-,Tetraconazole,A3475,-,-,-,156.0,mg/L,3.378,-log(M),,20.0,?C,,-,,,,-
C1=CC(Cl)=CC=C1CCC(C#N)(C2=CC=CC=C2)CN3N=CN=C3,114369-43-6,-,-,Fenbuconazole,A3480,-,-,-,0.2,mg/L,6.226,-log(M),,25.0,?C,,-,,,,-
C1=CC(Cl)=CC(Cl)=C1C2(CN3N=CN=C3)CC(Br)CO2,116255-48-2,-,-,Bromuconazole,A3480,-,-,-,50.0,mg/L,3.877,-log(M),,25.0,?C,,-,,,,-
N1=C(C(=O)N)N=C(C2=CC=CC=C2)N1C3=CC(COCC(F)(F)C(F)(F)F)=C(Cl)C=C3,119126-15-7,-,-,Flupoxam,A3475,-,-,-,1.0,mg/L,5.663,-log(M),,20.0,?C,,-,,,,-
O1CC(C)OC1(CN2N=CN=C2)C3=C(Cl)C=C(OC4=CC=C(Cl)C=C4)C=C3,119446-68-3,-,-,Difenoconazole,A3475,-,-,-,15.0,mg/L,4.433,-log(M),,25.0,?C,,-,,,,-
ClC1=CC(Cl)=C(NS(=O)(=O)C)C=C1N2N=C(C)N(C(F)F)C2=O,122836-35-5,-,-,Sulfentrazone,A3475,-,-,-,780.0,mg/L,2.696,-log(M),,25.0,?C,,-,,,,-
C1=CC(Cl)=CC=C1CC2CCC(C)(C)C2(O)CN3N=CN=C3,125116-23-6,-,-,Metconazole,A3475,-,-,-,15.0,mg/L,4.329,-log(M),,20.0,?C,,-,,,,-
C1=CC(Cl)=CC=C1CC2CCC(C(C)C)C2(O)CN3N=CN=C3,125225-28-7,-,-,IPCONAZOLE,A3480,-,-,-,6.93,mg/L,4.683,-log(M),,20.0,?C,,-,,,,-
CC1=CC(C)=CC(C)=C1S(=O)(=O)C2=NN(C(=O)N(CC)CC)C=N2,125306-83-4,-,-,Cafenstrole,A3480,-,-,-,2.5,mg/L,5.147,-log(M),,20.0,?C,,-,,,,-
FC1=CC(Cl)=C(CC(Cl)C(=O)OCC)C=C1N2C(=O)N(C(F)F)C(C)=N2,128639-02-1,-,-,Carfentrazone-ethyl,A3475,-,-,-,22.0,mg/L,4.273,-log(M),,25.0,?C,,-,,,,-
C1=CC(Cl)=CC=C1C2(O)CCCCCC2N3N=CN=C3,129586-32-9,-,-,SSF-109 FUNGICIDE,A3480,-,-,-,125.0,mg/L,3.368,-log(M),,25.0,?C,,-,,,,-
C(F)(F)(F)C=1N=C(C)SC1C(=O)NC2=C(Br)C=C(OC(F)(F)F)C=C2Br,130000-40-7,-,-,Thifluzamide,A3475,-,-,-,1.6,mg/L,5.519,-log(M),,20.0,?C,,-,,,,-
C1=CC(Cl)=CC=C1C=C2CCC(C)(C)C2(O)CN3N=CN=C3,131983-72-7,-,-,Triticonazole,A3475,-,-,-,7.0,mg/L,4.657,-log(M),,10.0,?C,,-,,,,-
FC1=CC=C2N=C(N3N=CN=C3)N(C4=CC=C(Cl)C=C4Cl)C(=O)C2=C1,136426-54-5,-,-,Fluquinconazole,A3475,-,-,-,1.0,mg/L,5.575,-log(M),,20.0,?C,,-,,,,-
COC=1C=C(OC)N2N=C(S(=O)(=O)NC3=C(Cl)C(C)=CC=C3Cl)N=C2N1,139528-85-1,-,-,Metosulam,A3475,-,-,-,200.0,mg/L,3.32,-log(M),,20.0,?C,,-,,,,-
C1=CC(OC(F)F)=CC=C1C(C(C)C)C(=O)OC(C#N)C2=CC=CC(OC3=CC=C(Br)C=C3)=C2,160791-64-0,-,-,ZXI 8901,A3475,-,-,-,0.00356,mg/L,8.173,-log(M),,25.0,?C,,-,,,,-
BrC1=CC=C(OC2=CC=C(Br)C=C2)C=C1,-,-,-,"4,4'-diBDE",A3564,-,-,-,-6.4,log(mol/L),6.4,-log(M),,,-,,-,,,,-
BrC1=CC(Br)=CC=C1OC2=CC=C(Br)C=C2,-,-,-,"2,4,4'-triBDE",A3564,-,-,-,-6.76,log(mol/L),6.76,-log(M),,,-,,-,,,,-
C1=CC(=C(C=C1Br)Br)OC2=C(C=C(C=C2)Br)Br,-,-,-,"2,2',4,4'-tetraBDE",A3564,-,-,-,-7.51,log(mol/L),7.51,-log(M),,,-,,-,,,,-
BrC1=CC=C(OC2=CC=C(Br)C=C2Br)C=C1Br,-,-,-,"2,3',4,4'-TetraBDE",A3564,-,-,-,-7.43,log(mol/L),7.43,-log(M),,,-,,-,,,,-
BrC1=CC=C(OC2=CC=C(Br)C(Br)=C2)C=C1Br,-,-,-,"3,3',4,4'-tetraBDE",A3564,-,-,-,-7.91,log(mol/L),7.91,-log(M),,,-,,-,,,,-
BrC1=CC=C(OC2=CC=C(Br)C=C2Br)C(Br)=C1Br,-,-,-,"2,2',3,4,4'-pentaBDE",A3564,-,-,-,-7.97,log(mol/L),7.97,-log(M),,,-,,-,,,,-
C1=CC(=C(C=C1Br)Br)OC2=CC(=C(C=C2Br)Br)Br,-,-,-,"2,2',4,4',5-pentaBDE",A3564,-,-,-,-7.78,log(mol/L),7.78,-log(M),,,-,,-,,,,-
C1=CC(=C(C=C1Br)Br)OC2=C(C=C(C=C2Br)Br)Br,-,-,-,"2,2',4,4',6-pentaBDE",A3564,-,-,-,-7.15,log(mol/L),7.15,-log(M),,,-,,-,,,,-
C1=C(C(=CC(=C1Br)Br)Br)OC2=CC(=C(C=C2Br)Br)Br,-,-,-,"2,2',4,4',5,5'-hexaBDE",A3564,-,-,-,-8.87,log(mol/L),8.87,-log(M),,,-,,-,,,,-
BrC1=CC(OC2=C(Br)C=C(Br)C=C2Br)=C(Br)C=C1Br,-,-,-,"2,2',4,4',5,6'-hexaBDE",A3564,-,-,-,-8.87,log(mol/L),8.87,-log(M),,,-,,-,,,,-
BrC1=C(OC2=CC(Br)=C(Br)C=C2Br)C(Br)=C(Br)C(Br)=C1,-,-,-,"2,2',3,4,4',5',6-heptaBDE",A3564,-,-,-,-8.68,log(mol/L),8.68,-log(M),,,-,,-,,,,-
C1(=C(C(=C(C(=C1Br)Br)Br)Br)Br)Br,-,-,-,HBB,A3564,-,-,-,-8.26,log(mol/L),8.26,-log(M),,,-,,-,,,,-
O=C(C1=C(C=C2C(C(CC(C)C2(C)C)(C)C)=C1)C)C,1506-02-1,-,-,AHTN,A3649,-,-,-,1.25,mg/L,5.315,-log(M),,,-,,-,,,,-
O1CC(C2=C(C=C3C(C(C(C)C3(C)C)(C)C)=C2)C1)C,-,-,-,HHCB,A3649,-,-,-,1.75,mg/L,5.169,-log(M),,,-,,-,,,,-
C=C(F)C(F)(F)F,-,-,,"2,3,3,3-Tetrafluoroprop- 1-ene",A4370,-,6,,198.2,mg/L,2.76,-log(M),,24.0,?C,,-,,,,-
FC(F)(F)C(F)(F)Cl,76-15-3,-,-,-,A5321,20958003,-,-,1.76,log(mg/L),3.429,-log(M),,,-,,-,,,,-
FC(F)(F)C1=CC=CC=C1,98-08-8,-,-,-,A5321,20958003,-,-,2.15,log(mg/L),3.015,-log(M),,,-,,-,,,,-
FC1(F)C(F)(F)C(F)(F)C1(F)F,115-25-3,-,-,-,A5321,20958003,-,-,1.37,log(mg/L),3.931,-log(M),,,-,,-,,,,-
FC(F)=C(F)F,116-14-3,-,-,-,A5321,20958003,-,-,2.2,log(mg/L),2.8,-log(M),,,-,,-,,,,-
FC(F)(Br)C(F)(F)Br,124-73-2,-,-,-,A5321,20958003,-,-,0.48,log(mg/L),4.935,-log(M),,,-,,-,,,,-
OC(=O)C(F)(F)C(F)(F)C(F)(F)C(F)(F)C(F)(F)C(F)(F)C(F)(F)F,335-67-1,-,-,-,A5321,20958003,-,-,-2.02,log(mg/L),7.637,-log(M),,,-,,-,,,,-
C(C(C(C(C(C(O)=O)(F)F)(F)F)(F)F)(F)F)(C(C(C(C(F)(F)F)(F)F)(F)F)(F)F)(F)F,335-76-2,-,-,-,A5321,20958003,-,-,-2.29,log(mg/L),8.001,-log(M),,,-,,-,,,,-
OCCC(F)(F)C(F)(F)C(F)(F)C(F)(F)C(F)(F)C(F)(F)F,647-42-7,-,-,-,A5321,20958003,-,-,1.27,log(mg/L),4.291,-log(M),,,-,,-,,,,-
OCCC(C(C(F)(C(F)(C(F)(C(F)(C(F)(C(F)(F)F)F)F)F)F)F)(F)F)(F)F,678-39-7,-,-,-,A5321,20958003,-,-,-0.83,log(mg/L),6.497,-log(M),,,-,,-,,,,-
OCCC(C(C(C(C(C(F)(C(F)(C(F)(C(F)(C(F)(F)F)F)F)F)F)(F)F)(F)F)(F)F)(F)F)(F)F,865-86-1,-,-,-,A5321,20958003,-,-,-1.96,log(mg/L),7.711,-log(M),,,-,,-,,,,-
CCN(CCO)S(=O)(=O)C(F)(F)C(F)(F)C(F)(F)C(F)(F)C(F)(F)C(F)(F)C(F)(F)C(F)(F)F,1691-99-2,-,-,-,A5321,20958003,-,-,-0.82,log(mg/L),6.577,-log(M),,,-,,-,,,,-
OCCC(F)(F)C(F)(F)C(F)(F)C(F)(F)F,2043-47-2,-,-,-,A5321,20958003,-,-,2.99,log(mg/L),2.432,-log(M),,,-,,-,,,,-
CN(CCO)S(=O)(=O)C(F)(F)C(F)(F)C(F)(F)C(F)(F)C(F)(F)C(F)(F)C(F)(F)C(F)(F)F,24448-09-7,-,-,-,A5321,20958003,-,-,-0.09,log(mg/L),5.836,-log(M),,,-,,-,,,,-
C(F)(F)(F)F,75-73-0,-,-,-,A5321,20958003,-,-,1.27,log(mg/L),3.675,-log(M),,,-,,-,,,,-
C(C(F)(F)F)(F)(F)F,76-16-4,-,-,-,A5321,20958003,-,-,0.89,log(mg/L),4.25,-log(M),,,-,,-,,,,-
NC1=CC(=CC=C1)C(F)(F)F,98-16-8,-,-,-,A5321,20958003,-,-,3.74,log(mg/L),1.467,-log(M),,,-,,-,,,,-
O=C(O)C=C(F)C(F)(F)C(F)(F)C(F)(F)C(F)(F)C(F)(F)C(F)(F)C(F)(F)F,70887-84-2,-,-,-,A5321,20958003,-,-,1.81,log(mg/L),3.851,-log(M),,,-,,-,,,,-
FC(F)(Cl)C(F)(F)Cl,76-14-2,-,-,-,A5321,20958003,-,-,2.11,log(mg/L),3.123,-log(M),,,-,,-,,,,-
FC(F)(F)C(F)(Cl)Cl,374-07-2,-,-,-,A5321,20958003,-,-,2.14,log(mg/L),3.093,-log(M),,,-,,-,,,,-
FC(Cl)C(F)(F)F,2837-89-0,-,-,-,A5321,20958003,-,-,3.18,log(mg/L),1.955,-log(M),,,-,,-,,,,-
NC1=NC=NN1,61-82-5,-,-,-,A5334,-,-,-,5.447158,log(mg/L),-0.5225,-log(M),,,-,,-,,,,-
COP(=S)(OC)SCN1N=NC2=CC=CC=C2C1=O,86-50-0,-,-,-,A5334,-,-,-,1.320146,log(mg/L),4.181,-log(M),,,-,,-,,,,-
N1N=NC2=CC=CC=C12,95-14-7,-,-,-,A5334,-,-,-,4.296665,log(mg/L),0.7793,-log(M),,,-,,-,,,,-
NC1=NC2=C(N=NN2)C(=O)N1,134-58-7,-,-,-,A5334,-,-,-,4.167317,log(mg/L),1.015,-log(M),,,-,,-,,,,-
N1N=NC2=C1C=NC=N2,273-40-5,-,-,-,A5334,-,-,-,4.851258,log(mg/L),0.2319,-log(M),,,-,,-,,,,-
CN(C)P(=O)(N(C)C)N1N=C(N=C1N)C2=CC=CC=C2,1031-47-6,-,-,-,A5334,-,-,-,2.39794,log(mg/L),3.071,-log(M),,,-,,-,,,,-