SMILES,CASRN,EXTERNALID,N,NAME,ARTICLEID,PUBMEDID,PAGE,TABLE,Solubility_log(mol/L),UNIT {Water solubility},"Water solubility {measured, converted}",UNIT {Water solubility}.1,Dataset,Temperature,UNIT {Temperature},Ionic strength,UNIT {Ionic strength},comment (chemical),source,pH,UNIT {pH}
CN1CN(C)CSC1=S,533-74-4,-,375,dazomet,A171,10850781,-,-,-2.13,log(mol/L),2.13,-log(M),Train,,-,,-,,,,-
O=C(C1=CC(C)=CC=C1)O,99-04-7,-,376,m-toluic acid,A171,10850781,-,-,-2.14,log(mol/L),2.14,-log(M),Train,,-,,-,,,,-
OC1=CC=C2C(=N1)C=CC=C2,59-31-4,-,377,2-(1h)quinolinone,A171,10850781,-,-,-2.14,log(mol/L),2.14,-log(M),Train,,-,,-,,,,-
O=C1NCCN1C(NCC(C)C)=O,30979-48-7,-,378,isocarbamid,A171,10850781,-,-,-2.15,log(mol/L),2.15,-log(M),Train,,-,,-,,,,-
C1=CC=CC=CC1,544-25-2,-,379,cycloheptatriene,A171,10850781,-,-,-2.15,log(mol/L),2.15,-log(M),Train,,-,,-,,,,-
O=C(O)COC1=CC=CC=C1Cl,614-61-9,-,380,2-chlorophenoxyacetic acid,A171,10850781,-,-,-2.16,log(mol/L),2.16,-log(M),Train,,-,,-,,,,-
OC1=CC=C2C(=C1)C=CC=N2,580-16-5,-,381,6-hydroxyquinoline,A171,10850781,-,-,-2.16,log(mol/L),2.16,-log(M),Train,,-,,-,,,,-
O=C1NC(C(C(N1)=O)(C2=CCCCC2)CC)=O,52-31-3,-,382,cyclobarbital,A171,10850781,-,-,-2.17,log(mol/L),2.17,-log(M),Train,,-,,-,,,,-
NC(NC1=CC=C(OCC)C=C1)=O,150-69-6,-,383,dulcin,A171,10850781,-,-,-2.17,log(mol/L),2.17,-log(M),Train,,-,,-,,,,-
O=C1NC(C(C(N1)=O)(C2=CC=CC=C2)CC=C)=O,115-43-5,-,384,phenallymal,A171,10850781,-,-,-2.18,log(mol/L),2.18,-log(M),Train,,-,,-,,,,-
O=S(NC(NCCCC)=O)(C1=CC=C(C=C1)N)=O,339-43-5,-,385,carbutamide,A171,10850781,-,-,-2.18,log(mol/L),2.18,-log(M),Train,,-,,-,,,,-
ClC(Cl)(Cl)CCl,630-20-6,-,386,"1,1,1,2-tetrachloroethane",A171,10850781,-,-,-2.18,log(mol/L),2.18,-log(M),Train,,-,,-,,,,-
O=N(C1=CC=C(C=NO)O1)=O,-,-,387,Nifuroxime,A171,10850781,-,-,-2.19,log(mol/L),2.19,-log(M),Train,,-,,-,,,,-
NC1=CC=CC(N(=O)=O)=C1,99-09-2,-,388,3-nitroaniline,A171,10850781,-,-,-2.19,log(mol/L),2.19,-log(M),Train,,-,,-,,,,-
O=C1NC(C(C(N1)=O)(C(C)C)CC)=O,76-76-6,-,389,probarbital,A171,10850781,-,-,-2.21,log(mol/L),2.21,-log(M),Train,,-,,-,,,,-
C1(=C(C(=C(C(=C1[H])[H])[H])[H])[H])C([H])([H])[H],108-88-3,-,390,Toluene,A171,10850781,-,-,-2.21,log(mol/L),2.21,-log(M),Train,,-,,-,,,,-
OC(C1=CC=CC=C1)(C2=CC=CC=C2)C(O)=O,76-93-7,-,391,benzilic acid,A171,10850781,-,-,-2.21,log(mol/L),2.21,-log(M),Train,,-,,-,,,,-
OC1=CC=CC=2C=CC=CC21,90-15-3,-,392,1-naphthol,A171,10850781,-,-,-2.22,log(mol/L),2.22,-log(M),Train,,-,,-,,,,-
CC1=CC(O)=C(C(C)C)C=C1,89-83-8,-,393,thymol,A171,10850781,-,-,-2.22,log(mol/L),2.22,-log(M),Train,,-,,-,,,,-
OC(=O)C(OC1=CC(Cl)=CC=C1)C,76466-16-5,-,394,dl-2-(2-chlorophenoxy)propionic acid,A171,10850781,-,-,-2.22,log(mol/L),2.22,-log(M),Train,,-,,-,,,,-
O=N(OCC(ON(=O)=O)CON(=O)=O)=O,55-63-0,-,395,nitroglycerin,A171,10850781,-,-,-2.22,log(mol/L),2.22,-log(M),Train,,-,,-,,,,-
O=C1N(C)C(C(C(N1)=O)(CC)CC)=O,50-11-3,-,396,metharbital,A171,10850781,-,-,-2.23,log(mol/L),2.23,-log(M),Train,,-,,-,,,,-
O=C(O)COC1=CC=C(Cl)C=C1C,94-74-6,-,397,(4-chloro-2-methylphenoxy)acetic acid,A171,10850781,-,-,-2.23,log(mol/L),2.23,-log(M),Train,,-,,-,,,,-
CCCCC1=C(O)N=C(N(C)C)N=C1C,5221-53-4,-,398,dimethirimol,A171,10850781,-,-,-2.24,log(mol/L),2.24,-log(M),Train,,-,,-,,,,-
CC1=CC(NS(=O)(C2=CC=C(C=C2)N)=O)=NC(C)=N1,515-64-0,-,399,sulfisomidine,A171,10850781,-,-,-2.24,log(mol/L),2.24,-log(M),Train,,-,,-,,,,-
CC(NC1=CC=CC=C1O)=O,614-80-2,-,400,2-hydroxyacetanilide,A171,10850781,-,-,-2.24,log(mol/L),2.24,-log(M),Train,,-,,-,,,,-
S=C1NC=CC(N1)=O,141-90-2,-,401,2-thiouracil,A171,10850781,-,-,-2.26,log(mol/L),2.26,-log(M),Train,,-,,-,,,,-
OC1=CC=2C=CC=CC2C=C1,135-19-3,-,402,2-naphthol,A171,10850781,-,-,-2.28,log(mol/L),2.28,-log(M),Train,,-,,-,,,,-
O=C1NC(C(C(N1)=O)N(=O)=O)=O,28176-10-5,-,403,5-nitrobarbituric acid,A171,10850781,-,-,-2.28,log(mol/L),2.28,-log(M),Train,,-,,-,,,,-
ICCC,107-08-4,-,404,1-iodopropane,A171,10850781,-,-,-2.29,log(mol/L),2.29,-log(M),Train,,-,,-,,,,-
CCCCCCCC(O)=O,124-07-2,-,405,caprylic acid,A171,10850781,-,-,-2.3,log(mol/L),2.3,-log(M),Train,,-,,-,,,,-
S=P(OCC)(OCC)OC1=CC=C(S(C)=O)C=C1,115-90-2,-,406,fensulfothion,A171,10850781,-,-,-2.3,log(mol/L),2.3,-log(M),Train,,-,,-,,,,-
FC1=C(F)C(F)=CC(F)=C1,2367-82-0,-,407,"1,2,3,5-tetrafluorobenzene",A171,10850781,-,-,-2.31,log(mol/L),2.31,-log(M),Train,,-,,-,,,,-
ClC(Cl)(Cl)Cl,56-23-5,-,408,Tetrachloromethane,A171,10850781,-,-,-2.31,log(mol/L),2.31,-log(M),Train,,-,,-,,,,-
O=C(OCC)C1=CC=CC=C1,93-89-0,-,409,ethyl benzoate,A171,10850781,-,-,-2.32,log(mol/L),2.32,-log(M),Train,,-,,-,,,,-
CC1(C)C2CCC1(C)C(O)C2,507-70-0,-,410,borneol,A171,10850781,-,-,-2.32,log(mol/L),2.32,-log(M),Train,,-,,-,,,,-
NC1=CC=C(S(=O)(NC2=CC=NN2C3=CC=CC=C3)=O)C=C1,526-08-9,-,411,sulfaphenazole,A171,10850781,-,-,-2.32,log(mol/L),2.32,-log(M),Train,,-,,-,,,,-
O=C(C1=CC=C(C=C1)N)OCCC,94-12-2,-,412,risocaine,A171,10850781,-,-,-2.33,log(mol/L),2.33,-log(M),Train,,-,,-,,,,-
O=C(NN)NC1=CC=CC=C1,537-47-3,-,413,4-phenylsemicarbazide,A171,10850781,-,-,-2.33,log(mol/L),2.33,-log(M),Train,,-,,-,,,,-
O=C(OC)C1=C(O)C=CC=C1,119-36-8,-,414,methyl salicylate,A171,10850781,-,-,-2.34,log(mol/L),2.34,-log(M),Train,,-,,-,,,,-
OC1=C(Cl)C=C(Cl)C=C1Cl,88-06-2,-,415,"2,4,6-trichlorophenol",A171,10850781,-,-,-2.34,log(mol/L),2.34,-log(M),Train,,-,,-,,,,-
CCC1(CCC(=O)NC1=O)C2=CC=CC=C2,77-21-4,-,416,glutethimide,A171,10850781,-,-,-2.34,log(mol/L),2.34,-log(M),Train,,-,,-,,,,-
NC1=C(CC)C=CC=C1CC,579-66-8,-,417,"2,6-diethylaniline",A171,10850781,-,-,-2.35,log(mol/L),2.35,-log(M),Train,,-,,-,,,,-
O=C(OCC)C1=CC=CC=C1C(OCC)=O,84-66-2,-,418,diethyl phthalate,A171,10850781,-,-,-2.35,log(mol/L),2.35,-log(M),Train,,-,,-,,,,-
O=C(C1=CC=C(O)C=C1)OCC,120-47-8,-,419,ethyl-p-hydroxybenzoate,A171,10850781,-,-,-2.35,log(mol/L),2.35,-log(M),Train,,-,,-,,,,-
CCCCCCCC=O,124-13-0,-,420,octanal,A171,10850781,-,-,-2.36,log(mol/L),2.36,-log(M),Train,,-,,-,,,,-
C#CCCCC,693-02-7,-,421,1-hexyne,A171,10850781,-,-,-2.36,log(mol/L),2.36,-log(M),Train,,-,,-,,,,-
CSC1=NC=2N=CC=NC2C=N1,-,-,422,4-methylthiopteridine,A171,10850781,-,-,-2.36,log(mol/L),2.36,-log(M),Train,,-,,-,,,,-
O=C(NC1CCCCCCC1)N(C)C,2163-69-1,-,423,cycluron,A171,10850781,-,-,-2.36,log(mol/L),2.36,-log(M),Train,,-,,-,,,,-
SC1=NC=NC=2N=CC=NC12,-,-,424,2-mercaptopteridine,A171,10850781,-,-,-2.36,log(mol/L),2.36,-log(M),Train,,-,,-,,,,-
CCOC1=CC=C(NC(C)=O)C=C1,62-44-2,-,425,phenacetin,A171,10850781,-,-,-2.37,log(mol/L),2.37,-log(M),Train,,-,,-,,,,-
CCCCBr,109-65-9,-,426,1-bromobutane,A171,10850781,-,-,-2.37,log(mol/L),2.37,-log(M),Train,,-,,-,,,,-
ClC1=CC=CC=C1,108-90-7,-,427,chlorobenzene,A171,10850781,-,-,-2.38,log(mol/L),2.38,-log(M),Train,,-,,-,,,,-
BrC(CCl)CBr,96-12-8,-,428,"1,2-dibromo-3-chloropropane",A171,10850781,-,-,-2.38,log(mol/L),2.38,-log(M),Train,,-,,-,,,,-
N#CC1=CC=CC=C1C#N,91-15-6,-,429,phthalonitrile,A171,10850781,-,-,-2.38,log(mol/L),2.38,-log(M),Train,,-,,-,,,,-
OC=1C=2C=NNC2N=CN1,315-30-0,-,430,allopurinol,A171,10850781,-,-,-2.38,log(mol/L),2.38,-log(M),Train,,-,,-,,,,-
ClCC1=CC=CC=C1,100-44-7,-,431,alfa-chlorotoluene,A171,10850781,-,-,-2.39,log(mol/L),2.39,-log(M),Train,,-,,-,,,,-
OC1=CC=CC=C1C2=CC=CC=C2,90-43-7,-,432,2-phenylphenol,A171,10850781,-,-,-2.39,log(mol/L),2.39,-log(M),Train,,-,,-,,,,-
CSC1=CC=CC=C1,100-68-5,-,433,thioanisole,A171,10850781,-,-,-2.39,log(mol/L),2.39,-log(M),Train,,-,,-,,,,-
ClC(Cl)CCC,541-33-3,-,434,"1,1-dichlorobutane",A171,10850781,-,-,-2.4,log(mol/L),2.4,-log(M),Train,,-,,-,,,,-
O=C(C1=CC=C(C=C1)OC)OC,121-98-2,-,435,methyl-4-methoxybenzoate,A171,10850781,-,-,-2.41,log(mol/L),2.41,-log(M),Train,,-,,-,,,,-
CC1=NN=C(NS(=O)(C2=CC=C(N)C=C2)=O)S1,144-82-1,-,436,sulfamethiazole,A171,10850781,-,-,-2.41,log(mol/L),2.41,-log(M),Train,,-,,-,,,,-
O=N(C1=CC=C(OC)C=C1)=O,100-17-4,-,437,4-nitroanisole,A171,10850781,-,-,-2.41,log(mol/L),2.41,-log(M),Train,,-,,-,,,,-
CC1=CNC2=C1C=CC=C2,83-34-1,-,438,3-methylindole,A171,10850781,-,-,-2.42,log(mol/L),2.42,-log(M),Train,,-,,-,,,,-
CC(C)CBr,78-77-3,-,439,1-bromo-2-methylpropane,A171,10850781,-,-,-2.43,log(mol/L),2.43,-log(M),Train,,-,,-,,,,-
S=C1NC(C)=CC(N1)=O,56-04-2,-,440,methylthiouracil,A171,10850781,-,-,-2.43,log(mol/L),2.43,-log(M),Train,,-,,-,,,,-
NC1=CC=C(S(NC2=NC=CS2)(=O)=O)C=C1,72-14-0,-,441,sulfathiozole,A171,10850781,-,-,-2.43,log(mol/L),2.43,-log(M),Train,,-,,-,,,,-
O=C(C=1S(=O)(CCOC1C)=O)NC2=CC=CC=C2,5259-88-1,-,442,oxycarboxin,A171,10850781,-,-,-2.43,log(mol/L),2.43,-log(M),Train,,-,,-,,,,-
O=N(C1=CC(C)=CC=C1)=O,99-08-1,-,443,3-nitrotoluene,A171,10850781,-,-,-2.44,log(mol/L),2.44,-log(M),Train,,-,,-,,,,-
O=S(C1=CC=C(N)C=C1)(NC2=NC(C)=C(C)O2)=O,729-99-7,-,444,sulfamoxole,A171,10850781,-,-,-2.44,log(mol/L),2.44,-log(M),Train,,-,,-,,,,-
O=C1NC(NC=C1C)=S,636-26-0,-,445,5-methyl-2-thiouracil,A171,10850781,-,-,-2.45,log(mol/L),2.45,-log(M),Train,,-,,-,,,,-
CC(C(O)=O)OC1=CC=C(Cl)C=C1Cl,120-36-5,-,446,dichlorprop,A171,10850781,-,-,-2.45,log(mol/L),2.45,-log(M),Train,,-,,-,,,,-
O=C(O)C1=C(Cl)C(N)=CC(Cl)=C1,133-90-4,-,447,chloramben,A171,10850781,-,-,-2.47,log(mol/L),2.47,-log(M),Train,,-,,-,,,,-
O=C1N(C(C)(C)C)C(NC(=C1Cl)C)=O,5902-51-2,-,448,terbacil,A171,10850781,-,-,-2.48,log(mol/L),2.48,-log(M),Train,,-,,-,,,,-
OC(C=CC1=CC=CC=C1)=O,621-82-9,-,449,cinnamic acid,A171,10850781,-,-,-2.48,log(mol/L),2.48,-log(M),Train,,-,,-,,,,-
O=C(CCl)N(C(C)C)C1=CC=CC=C1,1918-16-7,-,450,propachlor,A171,10850781,-,-,-2.48,log(mol/L),2.48,-log(M),Train,,-,,-,,,,-
ClC1=C(OCC(O)=O)C=CC(Cl)=C1,94-75-7,-,451,"2,4-d",A171,10850781,-,-,-2.51,log(mol/L),2.51,-log(M),Train,,-,,-,,,,-
ClC1=C2C(O)C3CC4C(O)(C(=O)C3=C(O)C2=C(O)C=C1)C(O)=C(C(=O)C4N(C)C)C(=O)N,127-33-3,-,452,demeclocycline,A171,10850781,-,,-2.52,log(mol/L),2.52,-log(M),Train,,-,,-,,,,-
CC(C1(C(NC(=O)NC1=O)=O)CC)CCC,76-74-4,-,453,pentobarbital,A171,10850781,-,-,-2.52,log(mol/L),2.52,-log(M),Train,,-,,-,,,,-
COC1=C(O)C=C(Cl)C(Cl)=C1,2460-49-3,-,454,"4,5-dichloroquiaiacol",A171,10850781,-,-,-2.53,log(mol/L),2.53,-log(M),Train,,-,,-,,,,-
CC=CCC,646-04-8,-,455,trans-2-pentene,A171,10850781,-,-,-2.54,log(mol/L),2.54,-log(M),Train,,-,,-,,,,-
ClCC1=CC=C(C=C1)F,352-11-4,-,456,p-fluorobenzyl chloride,A171,10850781,-,-,-2.54,log(mol/L),2.54,-log(M),Train,,-,,-,,,,-
O=C1C=2C(NC=CC2)=CC=C1,-,-,457,5-hydroxyquinoline,A171,10850781,-,,-2.54,log(mol/L),2.54,-log(M),Train,,-,,-,,,,-
COC1=CC(NS(=O)(C2=CC=C(C=C2)N)=O)=NC(C)=N1,3772-76-7,-,458,sulfamethomidine,A171,10850781,-,-,-2.54,log(mol/L),2.54,-log(M),Train,,-,,-,,,,-
ClC1=CC(C)=C(OC(C)C(O)=O)C=C1,93-65-2,-,459,Mecoprop,A171,10850781,-,-,-2.55,log(mol/L),2.55,-log(M),Train,,-,,-,,,,-
CC1=C(C(NC2=CC=CC=C2)=O)CCCO1,24691-76-7,-,460,pyracarbolid,A171,10850781,-,-,-2.56,log(mol/L),2.56,-log(M),Train,,-,,-,,,,-
O=C1NC(C(C(N1)=O)(CCC(C)C)CC)=O,57-43-2,-,461,amobarbital,A171,10850781,-,-,-2.57,log(mol/L),2.57,-log(M),Train,,-,,-,,,,-
COC1=CN=C(NS(=O)(C2=CC=C(C=C2)N)=O)N=C1,651-06-9,-,462,sulfameter,A171,10850781,-,-,-2.58,log(mol/L),2.58,-log(M),Train,,-,,-,,,,-
CC(CCCCCCC)=O,821-55-6,-,463,2-nonanone,A171,10850781,-,-,-2.58,log(mol/L),2.58,-log(M),Train,,-,,-,,,,-
C1=CCCCC1,110-83-8,-,464,cyclohexene,A171,10850781,-,-,-2.59,log(mol/L),2.59,-log(M),Train,,-,,-,,,,-
OC(C1=CC(Cl)=CC=C1)=O,535-80-8,-,465,m-chlorobenzoic acid,A171,10850781,-,-,-2.59,log(mol/L),2.59,-log(M),Train,,-,,-,,,,-
CCC1=CC=CS1,872-55-9,-,466,2-ethylthiophene,A171,10850781,-,-,-2.59,log(mol/L),2.59,-log(M),Train,,-,,-,,,,-
C1(CN(C2=CC=CC=C2)CC3=CC=CC=C3)=NCCN1,91-75-8,-,467,antazoline,A171,10850781,-,-,-2.6,log(mol/L),2.6,-log(M),Train,,-,,-,,,,-
C(Cl)(Cl)C(Cl)(Cl)Cl,76-01-7,-,468,pentachloroethane,A171,10850781,-,-,-2.6,log(mol/L),2.6,-log(M),Train,,-,,-,,,,-
COC1=CC=C(C(C2CC2)(C3=CN=CN=C3)O)C=C1,12771-68-5,-,469,ancymidol,A171,10850781,-,-,-2.6,log(mol/L),2.6,-log(M),Train,,-,,-,,,,-
OC(CN1C(SC2=C1C(Cl)=CC=C2)=O)=O,-,-,470,benazolin,A171,10850781,-,-,-2.61,log(mol/L),2.61,-log(M),Train,,-,,-,,,,-
O=S(NC1=NOC(C)=C1)(C2=CC=C(N)C=C2)=O,723-46-6,-,471,sulfamethoxazole,A171,10850781,-,-,-2.62,log(mol/L),2.62,-log(M),Train,,-,,-,,,,-
NC(OCCCCCCC)=O,4248-20-8,-,472,n-heptyl carbamate,A171,10850781,-,-,-2.62,log(mol/L),2.62,-log(M),Train,,-,,-,,,,-
O=S1(C2=C(C=C(Cl)C(S(N)(=O)=O)=C2)NCN1)=O,58-93-5,-,473,hydrochlorthiazide,A171,10850781,-,-,-2.62,log(mol/L),2.62,-log(M),Train,,-,,-,,,,-
C12C(ON(=O)=O)COC1C(ON(=O)=O)CO2,87-33-2,-,474,isosorbide dinitrate,A171,10850781,-,-,-2.63,log(mol/L),2.63,-log(M),Train,,-,,-,,,,-
O=C(C1=CC=C(N)C=C1)CC,70-69-9,-,475,p-aminopropiophenone,A171,10850781,-,-,-2.63,log(mol/L),2.63,-log(M),Train,,-,,-,,,,-
CC(Cl)CCC,625-29-6,-,476,2-chloropentane,A171,10850781,-,-,-2.63,log(mol/L),2.63,-log(M),Train,,-,,-,,,,-
C1CCCC1,287-92-3,-,477,cyclopentane,A171,10850781,-,-,-2.64,log(mol/L),2.64,-log(M),Train,,-,,-,,,,-
CN(CCN(C1=NC=CC=C1)CC2=CC=CC=C2)C,91-81-6,-,478,tripelenamine,A171,10850781,-,-,-2.64,log(mol/L),2.64,-log(M),Train,,-,,-,,,,-
CN(C)CCN(C1=CC=CC=N1)CC2=CC=CS2,91-80-5,-,479,methapyrilene,A171,10850781,-,-,-2.64,log(mol/L),2.64,-log(M),Train,,-,,-,,,,-
OC(CC1=CC=CC=2C=CC=CC21)=O,86-87-3,-,480,1-naphthaceneacetic acid,A171,10850781,-,-,-2.65,log(mol/L),2.65,-log(M),Train,,-,,-,,,,-
CC(C)N1C(C2=CC=CC=C2NS1(=O)=O)=O,25057-89-0,-,481,bentazon,A171,10850781,-,-,-2.68,log(mol/L),2.68,-log(M),Train,,-,,-,,,,-
C=CCCC=C,592-42-7,-,482,"1,5-hexadiene",A171,10850781,-,-,-2.68,log(mol/L),2.68,-log(M),Train,,-,,-,,,,-
C=CCCC,109-67-1,-,483,1-pentene,A171,10850781,-,-,-2.68,log(mol/L),2.68,-log(M),Train,,-,,-,,,,-
C=12C=3C=CC=NC3C=CC1C=CC=N2,230-46-6,-,484,"1,7-phenantroline",A171,10850781,-,-,-2.68,log(mol/L),2.68,-log(M),Train,,-,,-,,,,-
CC(NC1=CC=C(N(=O)=O)C=C1)=O,104-04-1,-,485,4-nitroacetanilide,A171,10850781,-,-,-2.69,log(mol/L),2.69,-log(M),Train,,-,,-,,,,-
ClC(C(C)(Cl)C)C,507-45-9,-,486,"2,3-dichloro-2-methylbutane",A171,10850781,-,-,-2.69,log(mol/L),2.69,-log(M),Train,,-,,-,,,,-
CC(Cl)C(Cl)C,7581-97-7,-,487,"2,3-dichlorobutane",A171,10850781,-,-,-2.7,log(mol/L),2.7,-log(M),Train,,-,,-,,,,-
NC1=CC=C(C=C1)C2=CC=C(N)C=C2,92-87-5,-,488,p-benzidine,A171,10850781,-,-,-2.7,log(mol/L),2.7,-log(M),Train,,-,,-,,,,-
O=C(O)CCCCCCCCCCN,2432-99-7,-,489,11-aminoundecanoic acid,A171,10850781,-,-,-2.7,log(mol/L),2.7,-log(M),Train,,-,,-,,,,-
CCCCCCC(OCC)=O,106-30-9,-,490,ethyl heptylate,A171,10850781,-,-,-2.71,log(mol/L),2.71,-log(M),Train,,-,,-,,,,-
C1=CC(OCC)=CC=C1C(=O)OCCN(CC)CC,94-23-5,-,491,parethoxycaine,A171,10850781,-,-,-2.71,log(mol/L),2.71,-log(M),Train,,-,,-,,,,-
OC1=CC=C(C(OCCCC)=O)C=C1,94-26-8,-,492,butyl-p-hydroxybenzoate,A171,10850781,-,-,-2.72,log(mol/L),2.72,-log(M),Train,,-,,-,,,,-
OC(C1=CC=CC=C1I)=O,88-67-5,-,493,o-iodobenzoic acid,A171,10850781,-,-,-2.73,log(mol/L),2.73,-log(M),Train,,-,,-,,,,-
O=C(N(C1=C(C)C=CC=C1CC)C(C)COC)CCl,51218-45-2,-,494,metolachlor,A171,10850781,-,-,-2.73,log(mol/L),2.73,-log(M),Train,,-,,-,,,,-
CCCCCCl,543-59-9,-,495,1-Chloropentane,A171,10850781,-,-,-2.73,log(mol/L),2.73,-log(M),Train,,-,,-,,,,-
O=C1N(C)C(C(C(N1)=O)(C2=CCCCC2)C)=O,56-29-1,-,496,hexabarital,A171,10850781,-,-,-2.74,log(mol/L),2.74,-log(M),Train,,-,,-,,,,-
CCCCCCCCC(O)=O,112-05-0,-,497,pelargonic acid,A171,10850781,-,-,-2.75,log(mol/L),2.75,-log(M),Train,,-,,-,,,,-
O=C(C1=NC(Cl)=C(Cl)C(N)=C1Cl)O,-,-,498,picloram,A171,10850781,-,-,-2.75,log(mol/L),2.75,-log(M),Train,,-,,-,,,,-
C1(CN2C(CC1CC2)C(O)C3=CC=NC4=C3C=C(OC)C=C4)C=C,130-95-0,-,499,Quinine,A171,10850781,-,-,-2.76,log(mol/L),2.76,-log(M),Train,,-,,-,,,,-
SC1=NC=2N=CC=NC2C=N1,-,-,500,4-mercaptopteridine,A171,10850781,-,-,-2.77,log(mol/L),2.77,-log(M),Train,,-,,-,,,,-
C=12C=3C=CC=CC3N=CC1C=CC=C2,229-87-8,-,501,phenanthridine,A171,10850781,-,-,-2.78,log(mol/L),2.78,-log(M),Train,,-,,-,,,,-
ClC1=C(C)C=C(O)C=C1C,88-04-0,-,502,"4-chloro-3,5-dimethylphenol",A171,10850781,-,-,-2.8,log(mol/L),2.8,-log(M),Train,,-,,-,,,,-
CC1=C(C)C=CC=C1,95-47-6,-,503,o-Xylene,A171,10850781,-,-,-2.8,log(mol/L),2.8,-log(M),Train,,-,,-,,,,-
O=C(NCC1=CC=CC=C1)CN2C(N(=O)=O)=NC=C2,22994-85-0,-,504,benznidazole,A171,10850781,-,-,-2.81,log(mol/L),2.81,-log(M),Train,,-,,-,,,,-
CN1C(ON(C1=O)C2=CC=C(C(Cl)=C2)Cl)=O,20354-26-1,-,505,methazole,A171,10850781,-,-,-2.82,log(mol/L),2.82,-log(M),Train,,-,,-,,,,-
CC1=CC(C)=CC=C1,108-38-3,-,506,m-xylene,A171,10850781,-,-,-2.82,log(mol/L),2.82,-log(M),Train,,-,,-,,,,-
OC1C23C(C4N5C(O)C(CC)C(C1C5C2)C4)N(C)C6=C3C=CC=C6,-,-,507,ajmaline,A171,10850781,-,-,-2.82,log(mol/L),2.82,-log(M),Train,,-,,-,,,,-
O=S(C1=CC=C(N)C=C1)(C2=CC=C(N)C=C2)=O,80-08-0,-,508,dapsone,A171,10850781,-,-,-2.82,log(mol/L),2.82,-log(M),Train,,-,,-,,,,-
CC(NC1=CC=C(Cl)C=C1)=O,539-03-7,-,509,4-chloroacetanilide,A171,10850781,-,-,-2.84,log(mol/L),2.84,-log(M),Train,,-,,-,,,,-
CC1=NC(NS(=O)(C2=CC=C(C=C2)N)=O)=NC=C1,127-79-7,-,510,sulfamerazine,A171,10850781,-,-,-2.85,log(mol/L),2.85,-log(M),Train,,-,,-,,,,-
NC1=NC=C(CC2=CC(OC)=C(OC)C(OC)=C2)C(N)=N1,738-70-5,-,511,Trimethoprim,A171,10850781,-,-,-2.86,log(mol/L),2.86,-log(M),Train,,-,,-,,,,-
O=C(O)C(N)CC1=CC(I)=C(O)C(I)=C1,66-02-4,-,512,"3,5-diiodotyrosine",A171,10850781,-,-,-2.86,log(mol/L),2.86,-log(M),Train,,-,,-,,,,-
OC1C2C(O)(C(=O)C=3C1C(C4=C(C3O)C(O)=CC=C4)C)C(O)=C(C(=O)C2N(C)C)C(=O)N,564-25-0,-,513,Doxycycline,A171,10850781,-,,-2.87,log(mol/L),2.87,-log(M),Train,,-,,-,,,,-
O=C1C(Cl)=C(N)C=NN1C2=CC=CC=C2,1698-60-8,-,514,pyrazon,A171,10850781,-,-,-2.87,log(mol/L),2.87,-log(M),Train,,-,,-,,,,-
ClC1=C2C(O)(C3CC4C(O)(C(=O)C3=C(O)C2=C(O)C=C1)C(O)=C(C(=O)C4N(C)C)C(=O)N)C,-,-,515,chlortetracycline,A171,10850781,-,,-2.88,log(mol/L),2.88,-log(M),Train,,-,,-,,,,-
O=C(N(C)C)NC1=CC=C(Cl)C=C1,150-68-5,-,516,monuron,A171,10850781,-,-,-2.89,log(mol/L),2.89,-log(M),Train,,-,,-,,,,-
CC(C)CCBr,107-82-4,-,517,1-bromo-3-methylbutane,A171,10850781,-,-,-2.89,log(mol/L),2.89,-log(M),Train,,-,,-,,,,-
O=S(NC=1ON=C(C)C1C)(C2=CC=C(N)C=C2)=O,127-69-5,-,518,sulfisoxazole,A171,10850781,-,-,-2.91,log(mol/L),2.91,-log(M),Train,,-,,-,,,,-
OC=1C=2C=CC=C(O)C2C=CC1,83-56-7,-,519,"naphthalene-1,5-diol",A171,10850781,-,-,-2.92,log(mol/L),2.92,-log(M),Train,,-,,-,,,,-
C=CCC1=CC=C(OC)C=C1,140-67-0,-,520,estragole,A171,10850781,-,-,-2.92,log(mol/L),2.92,-log(M),Train,,-,,-,,,,-
NC(C1=CC=CC=C1C(N)=O)=O,88-96-0,-,521,phthalamide,A171,10850781,-,-,-2.92,log(mol/L),2.92,-log(M),Train,,-,,-,,,,-
O=C(N(C)C)NC1=CC(OC(NC(C)(C)C)=O)=CC=C1,4849-32-5,-,522,karbutilate,A171,10850781,-,-,-2.93,log(mol/L),2.93,-log(M),Train,,-,,-,,,,-
OC1=CC=C2OC3=CC(OC)=CC(O)=C3C(=O)C2=C1,437-50-3,-,523,gentisin,A171,10850781,-,-,-2.93,log(mol/L),2.93,-log(M),Train,,-,,-,,,,-
CCCCI,542-69-8,-,524,1-iodobutane,A171,10850781,-,-,-2.96,log(mol/L),2.96,-log(M),Train,,-,,-,,,,-
COC1=CC(NS(=O)(C2=CC=C(C=C2)N)=O)=NC(OC)=N1,122-11-2,-,525,sulfadimethoxine,A171,10850781,-,-,-2.96,log(mol/L),2.96,-log(M),Train,,-,,-,,,,-
O=C(N(C)C)C(C1=CC=CC=C1)C2=CC=CC=C2,957-51-7,-,526,diphenamid,A171,10850781,-,-,-2.98,log(mol/L),2.98,-log(M),Train,,-,,-,,,,-
O=C(OCC)C=CC1=CC=CC=C1,103-36-6,-,527,ethyl cinnamate,A171,10850781,-,-,-3.0,log(mol/L),3.0,-log(M),Train,,-,,-,,,,-
O=C(CC)NC1=CC(Cl)=C(Cl)C=C1,709-98-8,-,528,propanil,A171,10850781,-,-,-3.0,log(mol/L),3.0,-log(M),Train,,-,,-,,,,-
O=C1NC(C(C(N1)=O)(C2=CCCCCC2)CC)=O,509-86-4,-,529,heptabarbital,A171,10850781,-,-,-3.0,log(mol/L),3.0,-log(M),Train,,-,,-,,,,-
CCCCCCCCCO,143-08-8,-,530,1-nonanol,A171,10850781,-,-,-3.01,log(mol/L),3.01,-log(M),Train,,-,,-,,,,-
O=C(NC1C2C3CCCC3C(C1)C2)N(C)C,28805-78-9,-,531,isonoruron,A171,10850781,-,-,-3.01,log(mol/L),3.01,-log(M),Train,,-,,-,,,,-
C#CCCCCC,628-71-7,-,532,1-heptyne,A171,10850781,-,-,-3.01,log(mol/L),3.01,-log(M),Train,,-,,-,,,,-
CCCCC1=C(O)N=C(NCC)N=C1C,23947-60-6,-,533,Ethirimol,A171,10850781,-,-,-3.02,log(mol/L),3.02,-log(M),Train,,-,,-,,,,-
CCN(C1=CC=CC=C1)CC,91-66-7,-,534,"n,n-diethylaniline",A171,10850781,-,-,-3.03,log(mol/L),3.03,-log(M),Train,,-,,-,,,,-
O=C(NO)C(C1=CC=C(CC(C)C)C=C1)C,53648-05-8,-,535,ibuproxam,A171,10850781,-,-,-3.04,log(mol/L),3.04,-log(M),Train,,-,,-,,,,-
CC(C)NC1=NC(NCC)=NC(SC)=N1,834-12-8,-,536,ametryn,A171,10850781,-,-,-3.04,log(mol/L),3.04,-log(M),Train,,-,,-,,,,-
O=S1(C2=C(C=C(Cl)C(S(N)(=O)=O)=C2)N=CN1)=O,58-94-6,-,537,Chlorothiazide,A171,10850781,-,-,-3.05,log(mol/L),3.05,-log(M),Train,,-,,-,,,,-