SMILES,CASRN,EXTERNALID,N,NAME,ARTICLEID,PUBMEDID,PAGE,TABLE,Solubility_log(mol/L),UNIT {Water solubility},"Water solubility {measured, converted}",UNIT {Water solubility}.1,Dataset,Temperature,UNIT {Temperature},Ionic strength,UNIT {Ionic strength},comment (chemical),source,pH,UNIT {pH}
CC(C1=CC=C(N)C=C1)=O,99-92-3,-,1015,p-aminoacetophenone,A171,10850781,-,-,-1.61,log(mol/L),1.61,-log(M),Test 1,,-,,-,,,,-
CC(CC(C(C)(C)C)=O)=O,-,-,1016,"5,5-dimethyl-2,4-hexadione",A171,10850781,-,-,-1.63,log(mol/L),1.63,-log(M),Test 1,,-,,-,,,,-
C#CCCC,627-19-0,-,1017,1-pentyne,A171,10850781,-,-,-1.64,log(mol/L),1.64,-log(M),Test 1,,-,,-,,,,-
O=C(OC)NS(C1=CC=C(N)C=C1)(=O)=O,3337-71-1,-,1018,asulam,A171,10850781,-,-,-1.66,log(mol/L),1.66,-log(M),Test 1,,-,,-,,,,-
O=C(OC)C1=CC=CC=C1C(OC)=O,131-11-3,-,1019,dimethyl phthalate,A171,10850781,-,-,-1.66,log(mol/L),1.66,-log(M),Test 1,,-,,-,,,,-
O=C(C1=CC=CC=C1)NCC(O)=O,495-69-2,-,1020,hippuric acid,A171,10850781,-,-,-1.68,log(mol/L),1.68,-log(M),Test 1,,-,,-,,,,-
NCC(CC)CCCC,104-75-6,-,1021,2-ethylhexylamine,A171,10850781,-,-,-1.71,log(mol/L),1.71,-log(M),Test 1,,-,,-,,,,-
O=C(NCC)C(OC(NC1=CC=CC=C1)=O)C,16118-49-3,-,1022,carbetamide,A171,10850781,-,-,-1.83,log(mol/L),1.83,-log(M),Test 1,,-,,-,,,,-
C12OC(C(Cl)(Cl)Cl)OC1C(C(O2)C(O)CO)O,15879-93-3,-,1023,chloralose,A171,10850781,-,-,-1.84,log(mol/L),1.84,-log(M),Test 1,,-,,-,,,,-
CCCCCCCN,111-68-2,-,1024,heptylamine,A171,10850781,-,-,-1.85,log(mol/L),1.85,-log(M),Test 1,,-,,-,,,,-
O=C(OC)C1=CC=CC=C1,93-58-3,-,1025,methyl benzoate,A171,10850781,-,-,-1.85,log(mol/L),1.85,-log(M),Test 1,,-,,-,,,,-
CC12CC(C(C)(C)C1=O)CC2,4695-62-9,-,1026,d-fenchone,A171,10850781,-,-,-1.85,log(mol/L),1.85,-log(M),Test 1,,-,,-,,,,-
ClCCCBr,109-70-6,-,1027,1-bromo-3-chloropropane,A171,10850781,-,-,-1.85,log(mol/L),1.85,-log(M),Test 1,,-,,-,,,,-
C=CC=C,106-99-0,-,1028,"1,3-Butadiene",A171,10850781,-,-,-1.87,log(mol/L),1.87,-log(M),Test 1,,-,,-,,,,-
O=C1C=CC2=CC=CC=C2O1,91-64-5,-,1029,Coumarin,A171,10850781,-,-,-1.89,log(mol/L),1.89,-log(M),Test 1,,-,,-,,,,-
O=C(C1=CC=CC=C1Cl)O,118-91-2,-,1030,o-chlorobenzoic acid,A171,10850781,-,-,-1.89,log(mol/L),1.89,-log(M),Test 1,,-,,-,,,,-
O=N(C1=CC=CC=C1NC(C)=O)=O,552-32-9,-,1031,2-nitroacetanilide,A171,10850781,-,-,-1.91,log(mol/L),1.91,-log(M),Test 1,,-,,-,,,,-
ClC(CCl)CCl,96-18-4,-,1032,"1,2,3-trichloropropane",A171,10850781,-,-,-1.92,log(mol/L),1.92,-log(M),Test 1,,-,,-,,,,-
NC1=CC=CC=2C=CC=CC21,134-32-7,-,1033,1-naphthylamine,A171,10850781,-,-,-1.92,log(mol/L),1.92,-log(M),Test 1,,-,,-,,,,-
CC1=NC=2C=CC=CC2C(C)=C1,1198-37-4,-,1034,"2,4-dimethylquinoline",A171,10850781,-,-,-1.94,log(mol/L),1.94,-log(M),Test 1,,-,,-,,,,-
NC1=NC=NC2=C1C=CN2C3OC(CO)C(C3O)O,69-33-0,-,1035,tubercidin,A171,10850781,-,-,-1.95,log(mol/L),1.95,-log(M),Test 1,,-,,-,,,,-
CC1=NC=2C=CC=CC2N1,615-15-6,-,1036,2-methylbenzimidazole,A171,10850781,-,-,-1.96,log(mol/L),1.96,-log(M),Test 1,,-,,-,,,,-
COC1=CC=CC=C1O,90-05-1,-,1037,guaiacol,A171,10850781,-,-,-1.96,log(mol/L),1.96,-log(M),Test 1,,-,,-,,,,-
C(Cl)=C(Cl)Cl,79-01-6,-,1038,trichloroethylene,A171,10850781,-,-,-1.96,log(mol/L),1.96,-log(M),Test 1,,-,,-,,,,-
FC1=CC=C(F)C=C1,540-36-3,-,1039,p-difluorobenzene,A171,10850781,-,-,-1.97,log(mol/L),1.97,-log(M),Test 1,,-,,-,,,,-
CC(C)=CCCC(C)(O)C=C,78-70-6,-,1040,linalool,A171,10850781,-,-,-1.99,log(mol/L),1.99,-log(M),Test 1,,-,,-,,,,-
O=S(NC(N)=N)(C1=CC=C(C=C1)N)=O,57-67-0,-,1041,sulfaguanidine,A171,10850781,-,-,-1.99,log(mol/L),1.99,-log(M),Test 1,,-,,-,,,,-
O=C1CC2CCC1(C2(C)C)C,76-22-2,-,1042,camphor,A171,10850781,-,-,-1.99,log(mol/L),1.99,-log(M),Test 1,,-,,-,,,,-
CCCCCC(OC)=O,106-70-7,-,1043,methyl capronate,A171,10850781,-,-,-2.0,log(mol/L),2.0,-log(M),Test 1,,-,,-,,,,-
CC(CCl)C,513-36-0,-,1044,1-chloro-2-methylpropane,A171,10850781,-,-,-2.0,log(mol/L),2.0,-log(M),Test 1,,-,,-,,,,-
FC1=CC(F)=CC=C1,372-18-9,-,1045,m-difluorobenzene,A171,10850781,-,-,-2.0,log(mol/L),2.0,-log(M),Test 1,,-,,-,,,,-
C=C(C=C)C,78-79-5,-,1046,"2-methyl-1,3-butadiene",A171,10850781,-,-,-2.03,log(mol/L),2.03,-log(M),Test 1,,-,,-,,,,-
OC1=C(OC)C=C(C(O)=O)C=C1,121-34-6,-,1047,vanillic acid,A171,10850781,-,-,-2.05,log(mol/L),2.05,-log(M),Test 1,,-,,-,,,,-
CC(C)=CCCC(C)=CC=O,5392-40-5,-,1048,citral,A171,10850781,-,-,-2.06,log(mol/L),2.06,-log(M),Test 1,,-,,-,,,,-
O=C1NC(C(C(N1)=O)(CC=C)CC=C)=O,52-43-7,-,1049,allobarbital,A171,10850781,-,-,-2.06,log(mol/L),2.06,-log(M),Test 1,,-,,-,,,,-
CC1=CC=CC2=C1N3C=NN=C3S2,41814-78-2,-,1050,tricyclazole,A171,10850781,-,-,-2.07,log(mol/L),2.07,-log(M),Test 1,,-,,-,,,,-
BrCCCBr,109-64-8,-,1051,"1,3-dibromopropane",A171,10850781,-,-,-2.08,log(mol/L),2.08,-log(M),Test 1,,-,,-,,,,-
CNC(ON=C1C2C(C#N)CC(C2)C1Cl)=O,15271-41-7,-,1052,tranid,A171,10850781,-,-,-2.08,log(mol/L),2.08,-log(M),Test 1,,-,,-,,,,-
CCSCC1=CC=CC=C1OC(NC)=O,29973-13-5,-,1053,ethiofencarb,A171,10850781,-,-,-2.09,log(mol/L),2.09,-log(M),Test 1,,-,,-,,,,-
NC1=NC=C(CC2=CC(OC)=C(OCCOC)C(OC)=C2)C(N)=N1,53808-87-0,-,1054,tetroxoprim,A171,10850781,-,-,-2.1,log(mol/L),2.1,-log(M),Test 1,,-,,-,,,,-
C1=CCCC1,142-29-0,-,1055,cyclopentene,A171,10850781,-,-,-2.1,log(mol/L),2.1,-log(M),Test 1,,-,,-,,,,-
OC(C(CO)NC(C(Cl)Cl)=O)C1=CC=C(N(=O)=O)C=C1,56-75-7,-,1056,Chloramphenicol,A171,10850781,-,-,-2.11,log(mol/L),2.11,-log(M),Test 1,,-,,-,,,,-
S=C1NC(CCC)=CC(N1)=O,51-52-5,-,1057,propylthiouracil,A171,10850781,-,-,-2.15,log(mol/L),2.15,-log(M),Test 1,,-,,-,,,,-
CC(Br)CBr,78-75-1,-,1058,"1,2-dibromopropane",A171,10850781,-,-,-2.15,log(mol/L),2.15,-log(M),Test 1,,-,,-,,,,-
C=12C=CC=CC1NN=C2,271-44-3,-,1059,indazole,A171,10850781,-,-,-2.16,log(mol/L),2.16,-log(M),Test 1,,-,,-,,,,-
O=C1C(C)CCC(C(C)=C)C1,619-02-3,-,1060,l-dihydrocarvone,A171,10850781,-,-,-2.18,log(mol/L),2.18,-log(M),Test 1,,-,,-,,,,-
CCCCS,109-79-5,-,1061,butanethiol,A171,10850781,-,-,-2.18,log(mol/L),2.18,-log(M),Test 1,,-,,-,,,,-
ClC1=CC(Cl)=C(O)C=C1Cl,95-95-4,-,1062,"2,4,5-trichlorophenol",A171,10850781,-,-,-2.21,log(mol/L),2.21,-log(M),Test 1,,-,,-,,,,-
OC1(C2(C(NC(NC2=O)=O)=O)O)C(NC(NC1=O)=O)=O,76-24-4,-,1063,Alloxantin(Uroxine),A171,10850781,-,-,-1.99,log(mol/L),1.99,-log(M),Test 1,,-,,-,,,,-
CN1C2CCC1C(C(OC)=O)C(OC(C3=CC=CC=C3)=O)C2,50-36-2,-,1064,Cocaine,A171,10850781,-,-,-2.23,log(mol/L),2.23,-log(M),Test 1,,-,,-,,,,-
O=C(C1=CC=CC=C1)NC(C2=CC=CC=C2)=O,614-28-8,-,1065,N-Benzoylbenzamide,A171,10850781,-,-,-2.27,log(mol/L),2.27,-log(M),Test 1,,-,,-,,,,-
CC1=CC(C)=NC(NS(=O)(C2=CC=C(N)C=C2)=O)=N1,57-68-1,-,1066,Sulfamethazine,A171,10850781,-,-,-2.27,log(mol/L),2.27,-log(M),Test 1,,-,,-,,,,-
CCCN(CCC)CCC,102-69-2,-,1067,tripropylamine,A171,10850781,-,-,-2.28,log(mol/L),2.28,-log(M),Test 1,,-,,-,,,,-
O=C(C1=C(C2=CC=CC=C2C(O)=O)C=CC=C1)O,482-05-3,-,1068,diphenic acid,A171,10850781,-,-,-2.28,log(mol/L),2.28,-log(M),Test 1,,-,,-,,,,-
O=C(O)COC1=CC=C(Cl)C=C1,122-88-3,-,1069,4-chlorophenoxyacetic acid,A171,10850781,-,-,-2.29,log(mol/L),2.29,-log(M),Test 1,,-,,-,,,,-
OC=1C=2N=CNC2N=CN1,68-94-0,-,1070,hypoxanthine,A171,10850781,-,-,-2.29,log(mol/L),2.29,-log(M),Test 1,,-,,-,,,,-
BrC1CCCCC1,108-85-0,-,1071,bromocyclohexane,A171,10850781,-,-,-2.3,log(mol/L),2.3,-log(M),Test 1,,-,,-,,,,-
NC1=CC=C(C=C1)CC2=CC=C(N)C=C2,101-77-9,-,1072,bis-(p-aminophenyl)-methane,A171,10850781,-,-,-2.3,log(mol/L),2.3,-log(M),Test 1,,-,,-,,,,-
C(CCCCC)(=O)OCC,123-66-0,-,1073,ethyl capronate,A171,10850781,-,-,-2.31,log(mol/L),2.31,-log(M),Test 1,,-,,-,,,,-
O=N(C1=CC=CC=C1C)=O,88-72-2,-,1074,2-nitrotoluene,A171,10850781,-,-,-2.33,log(mol/L),2.33,-log(M),Test 1,,-,,-,,,,-
CCOC1=CC=CC=C1,103-73-1,-,1075,phenetole,A171,10850781,-,-,-2.33,log(mol/L),2.33,-log(M),Test 1,,-,,-,,,,-
CNC(OC1=CC(N=CN(C)C)=CC=C1)=O,22259-30-9,-,1076,formetanate,A171,10850781,-,-,-2.34,log(mol/L),2.34,-log(M),Test 1,,-,,-,,,,-
CNC(OC1=CC=C(C(C)=C1)N(C)C)=O,2032-59-9,-,1077,aminocarb,A171,10850781,-,-,-2.36,log(mol/L),2.36,-log(M),Test 1,,-,,-,,,,-
CC(NC1=NN=C(S(N)(=O)=O)S1)=O,59-66-5,-,1078,acetazoleamide,A171,10850781,-,-,-2.36,log(mol/L),2.36,-log(M),Test 1,,-,,-,,,,-
NC1=CC=C(N(=O)=O)C=C1,100-01-6,-,1079,4-nitroaniline,A171,10850781,-,-,-2.37,log(mol/L),2.37,-log(M),Test 1,,-,,-,,,,-
FC1=C(F)C=C(F)C(F)=C1,327-54-8,-,1080,"1,2,4,5-tetrafluorobenzene",A171,10850781,-,-,-2.38,log(mol/L),2.38,-log(M),Test 1,,-,,-,,,,-
CC1=CSC=C1,616-44-4,-,1081,3-methylthiophene,A171,10850781,-,-,-2.39,log(mol/L),2.39,-log(M),Test 1,,-,,-,,,,-
CCCCCCCCO,111-87-5,-,1082,1-octanol,A171,10850781,-,-,-2.39,log(mol/L),2.39,-log(M),Test 1,,-,,-,,,,-
COC=1C=2OC=CC2C(=C3C1OC(C)=CC3=O)OC,82-02-0,-,1083,khellin,A171,10850781,-,-,-2.4,log(mol/L),2.4,-log(M),Test 1,,-,,-,,,,-
CC(C)(C1=CC=C(O)C=C1)C,98-54-4,-,1084,p-t-butylphenol,A171,10850781,-,-,-2.41,log(mol/L),2.41,-log(M),Test 1,,-,,-,,,,-
OC=1C=2N=CC=CC2C=CC1,148-24-3,-,1085,8-quinolinol,A171,10850781,-,-,-2.42,log(mol/L),2.42,-log(M),Test 1,,-,,-,,,,-
CC(OCCCCCC)=O,142-92-7,-,1086,hexyl acetate,A171,10850781,-,-,-2.46,log(mol/L),2.46,-log(M),Test 1,,-,,-,,,,-
CC1CCC(C(C)C)C(C1)=O,14073-97-3,-,1087,l-menthone,A171,10850781,-,-,-2.49,log(mol/L),2.49,-log(M),Test 1,,-,,-,,,,-
CC1=CC=C(N(=O)=O)C=C1,99-99-0,-,1088,4-nitrotoluene,A171,10850781,-,-,-2.49,log(mol/L),2.49,-log(M),Test 1,,-,,-,,,,-
CC(C)(Cl)CC,594-36-5,-,1089,2-chloro-2-methylbutane,A171,10850781,-,-,-2.51,log(mol/L),2.51,-log(M),Test 1,,-,,-,,,,-
OC(C1=CC=CC=C1)CC2=CC=CC=C2,614-29-9,-,1090,"dl-1,2-diphenylethanol",A171,10850781,-,-,-2.52,log(mol/L),2.52,-log(M),Test 1,,-,,-,,,,-
CC(C1CCC(C)CC1O)C,89-78-1,-,1091,menthol,A171,10850781,-,-,-2.53,log(mol/L),2.53,-log(M),Test 1,,-,,-,,,,-
ClC(Cl)=C(Cl)Cl,127-18-4,-,1092,tetrachloroethylene,A171,10850781,-,-,-2.54,log(mol/L),2.54,-log(M),Test 1,,-,,-,,,,-
BrC1=CC=CC=C1,108-86-1,-,1093,bromobenzene,A171,10850781,-,-,-2.55,log(mol/L),2.55,-log(M),Test 1,,-,,-,,,,-
OC(C1=CC=CC=C1)C2=CC=CC=C2,91-01-0,-,1094,benzhydrol,A171,10850781,-,-,-2.55,log(mol/L),2.55,-log(M),Test 1,,-,,-,,,,-
O=C(N(OC)C)NC1=CC=C(Cl)C=C1,1746-81-2,-,1095,monolinuron,A171,10850781,-,-,-2.57,log(mol/L),2.57,-log(M),Test 1,,-,,-,,,,-
NC(CC)CC1=CNC=2C=CC=CC21,2235-90-7,-,1096,etryptamine,A171,10850781,-,-,-2.57,log(mol/L),2.57,-log(M),Test 1,,-,,-,,,,-
NC(CC1=CC=C(O)C=C1)C(O)=O,60-18-4,-,1097,l-tyrosine,A171,10850781,-,-,-2.57,log(mol/L),2.57,-log(M),Test 1,,-,,-,,,,-
OC1=C(C=CC(O)=C1)CCCCCC,136-77-6,-,1098,4-hexylresorcinol,A171,10850781,-,-,-2.59,log(mol/L),2.59,-log(M),Test 1,,-,,-,,,,-
CCCCC(CCCC)=O,502-56-7,-,1099,5-nonanone,A171,10850781,-,-,-2.59,log(mol/L),2.59,-log(M),Test 1,,-,,-,,,,-
CC1(C(N(Cl)C(=O)N1Cl)=O)C,118-52-5,-,1100,"1,3-dichloro-5,5-dimethylhydantoin",A171,10850781,-,-,-2.6,log(mol/L),2.6,-log(M),Test 1,,-,,-,,,,-
CC1=CC=C(C(O)=O)C=C1,99-94-5,-,1101,p-toluic acid,A171,10850781,-,-,-2.6,log(mol/L),2.6,-log(M),Test 1,,-,,-,,,,-
O=C1NC(C2=CC=CC=C21)=O,85-41-6,-,1102,phthalimide,A171,10850781,-,-,-2.61,log(mol/L),2.61,-log(M),Test 1,,-,,-,,,,-
C=12C=CC=CC1N=CC=C2C(O)C3N4CC(C(CC4)C3)CC,485-65-4,-,1103,hydrocinchonine,A171,10850781,-,-,-2.63,log(mol/L),2.63,-log(M),Test 1,,-,,-,,,,-
ClC(CC)CC,616-20-6,-,1104,3-chloropentane,A171,10850781,-,-,-2.63,log(mol/L),2.63,-log(M),Test 1,,-,,-,,,,-
O=C1NC(C(C(N1)=O)(CC)C2=CC3CCC(C2)C3)=O,3625-25-0,-,1105,reposal,A171,10850781,-,-,-2.64,log(mol/L),2.64,-log(M),Test 1,,-,,-,,,,-
O=C1NCNC(C1(C2=CC=CC=C2)CC)=O,125-33-7,-,1106,Primidone,A171,10850781,-,-,-2.64,log(mol/L),2.64,-log(M),Test 1,,-,,-,,,,-
O=C(C1=CC=CC=C1)OCCC,2315-68-6,-,1107,propyl benzoate,A171,10850781,-,-,-2.67,log(mol/L),2.67,-log(M),Test 1,,-,,-,,,,-
ClC(Cl)C1NS(C2=CC(=C(C=C2N1)Cl)S(N)(=O)=O)(=O)=O,133-67-5,-,1108,trichlormethiazide,A171,10850781,-,-,-2.68,log(mol/L),2.68,-log(M),Test 1,,-,,-,,,,-
BrC(CC)(CC)C(NC(N)=O)=O,77-65-6,-,1109,carbromal,A171,10850781,-,-,-2.68,log(mol/L),2.68,-log(M),Test 1,,-,,-,,,,-
OC12CC=3C(=C1C4=C(OC2)C(=C(C=C4)O)O)C=C(O)C(C3)=O,475-25-2,-,1110,hematein,A171,10850781,-,-,-2.7,log(mol/L),2.7,-log(M),Test 1,,-,,-,,,,-
O=S(NC1=CC=CC=N1)(C2=CC=C(N)C=C2)=O,144-83-2,-,1111,sulfapyridine,A171,10850781,-,-,-2.7,log(mol/L),2.7,-log(M),Test 1,,-,,-,,,,-
SC1=CN=C2N=CN=CC2=N1,-,-,1112,7-mercaptopteridine,A171,10850781,-,-,-2.71,log(mol/L),2.71,-log(M),Test 1,,-,,-,,,,-
CCCCCCCCN,111-86-4,-,1113,n-octylamine,A171,10850781,-,-,-2.75,log(mol/L),2.75,-log(M),Test 1,,-,,-,,,,-
CCC1=CC=CC=C1,100-41-4,-,1114,ethylbenzene,A171,10850781,-,-,-2.77,log(mol/L),2.77,-log(M),Test 1,,-,,-,,,,-
CC1=CC=C(C=C1)C,106-42-3,-,1115,p-xylene,A171,10850781,-,-,-2.77,log(mol/L),2.77,-log(M),Test 1,,-,,-,,,,-
O=C1C2=C(C=CC(O)=C2O)C(C3=CC=CC=C31)=O,72-48-0,-,1116,alizarin,A171,10850781,-,-,-2.78,log(mol/L),2.78,-log(M),Test 1,,-,,-,,,,-
IC1=CC=CC=C1,591-50-4,-,1117,iodobenzene,A171,10850781,-,-,-2.78,log(mol/L),2.78,-log(M),Test 1,,-,,-,,,,-
OC(C1=CC=C(N(=O)=O)C=C1)=O,62-23-7,-,1118,4-nitrobenzoic acid,A171,10850781,-,-,-2.8,log(mol/L),2.8,-log(M),Test 1,,-,,-,,,,-
CC1=CN=C(NS(=O)(C2=CC=C(C=C2)N)=O)N=C1,599-88-2,-,1119,sulfaperine,A171,10850781,-,-,-2.82,log(mol/L),2.82,-log(M),Test 1,,-,,-,,,,-
CC(C1=CC=C(O)C=C1)(C)C2=CC=C(O)C=C2,80-05-7,-,1120,diphenylolpropane,A171,10850781,-,-,-2.82,log(mol/L),2.82,-log(M),Test 1,,-,,-,,,,-
C=CC1=CC=CC=C1,100-42-5,-,1121,styrene,A171,10850781,-,-,-2.82,log(mol/L),2.82,-log(M),Test 1,,-,,-,,,,-
OC(C1=CC=CC=C1)C(C2=CC=CC=C2)=O,579-44-2,-,1122,benzoin,A171,10850781,-,-,-2.85,log(mol/L),2.85,-log(M),Test 1,,-,,-,,,,-
ClC1=CC(C)=C(C=C1)N=CN(C)C,6164-98-3,-,1123,chlordimenform,A171,10850781,-,-,-2.86,log(mol/L),2.86,-log(M),Test 1,,-,,-,,,,-
C1(NNC2=CC=CC=C2)=CC=CC=C1,122-66-7,-,1125,hydrazobenzene,A171,10850781,-,-,-2.92,log(mol/L),2.92,-log(M),Test 1,,-,,-,,,,-
CC1C(CC(C(O1)OC2C(C(C(C(C2O)O)O)O)O)N)N=C(C(=O)O)N,-,-,1126,KASUGAMYCIN,A171,10850781,-,,-2.93,log(mol/L),2.93,-log(M),Test 1,,-,,-,,,,-
O=C1CCC2(C)C(CCC3C2C(O)CC4(C)C3CCC4(O)C(CO)=O)=C1,50-23-7,-,1128,Hydrocortisone,A171,10850781,-,-,-2.97,log(mol/L),2.97,-log(M),Test 1,,-,,-,,,,-
CCN1C=C(C(C2=C1N=C(N3CCNCC3)N=C2)=O)C(O)=O,51940-44-4,-,1129,pipedemic acid,A171,10850781,-,-,-2.98,log(mol/L),2.98,-log(M),Test 1,,-,,-,,,,-
O=C1C=CC2(C)C(C(C)CC3C2C(O)CC4(C)C3CCC4(O)C(CO)=O)=C1,83-43-2,-,1130,6-methylprednisolone,A171,10850781,-,-,-2.99,log(mol/L),2.99,-log(M),Test 1,,-,,-,,,,-
O=S(NC(NCCC)=O)(C1=CC=C(Cl)C=C1)=O,94-20-2,-,1131,chlorpropamide,A171,10850781,-,-,-3.03,log(mol/L),3.03,-log(M),Test 1,,-,,-,,,,-
O=C1C(C)=CC(C=2C1=CC=CC2)=O,58-27-5,-,1132,menadione,A171,10850781,-,-,-3.03,log(mol/L),3.03,-log(M),Test 1,,-,,-,,,,-
ClC(F)(F)C(Cl)(Cl)F,76-13-1,-,1133,"1,1,2-trichlorotrifluoroethane",A171,10850781,-,-,-3.04,log(mol/L),3.04,-log(M),Test 1,,-,,-,,,,-
ClC1=CC(Cl)=CC=C1,541-73-1,-,1134,"1,3-Dichlorobenzene",A171,10850781,-,-,-3.04,log(mol/L),3.04,-log(M),Test 1,,-,,-,,,,-
C12=CC=CC=C1CCC2,496-11-7,-,1135,indane,A171,10850781,-,-,-3.04,log(mol/L),3.04,-log(M),Test 1,,-,,-,,,,-
CC(NC1=CC=C(Br)C=C1)=O,103-88-8,-,1136,4-bromoacetanilide,A171,10850781,-,-,-3.08,log(mol/L),3.08,-log(M),Test 1,,-,,-,,,,-
CC1=CC=C(Cl)C=C1,106-43-4,-,1137,p-chlorotoluene,A171,10850781,-,-,-3.08,log(mol/L),3.08,-log(M),Test 1,,-,,-,,,,-
O=C(O)CC1=C(Cl)C=CC(Cl)=C1Cl,85-34-7,-,1138,chlorfenac,A171,10850781,-,-,-3.08,log(mol/L),3.08,-log(M),Test 1,,-,,-,,,,-
C1CCCCC1,110-82-7,-,1139,Cyclohexane,A171,10850781,-,-,-3.1,log(mol/L),3.1,-log(M),Test 1,,-,,-,,,,-
O=C(C1=CC=CC=C1)C2=CC=CC=C2,119-61-9,-,1140,benzophenone,A171,10850781,-,-,-3.12,log(mol/L),3.12,-log(M),Test 1,,-,,-,,,,-
O=C1N(C2=CC=CC=C2)N=CC(N)=C1Br,3042-84-0,-,1141,brompyrazone,A171,10850781,-,-,-3.12,log(mol/L),3.12,-log(M),Test 1,,-,,-,,,,-
O=C(C1=CC=CC=C1O)OCCC(C)C,87-20-7,-,1142,isoamyl salicylate,A171,10850781,-,-,-3.16,log(mol/L),3.16,-log(M),Test 1,,-,,-,,,,-
CCCCCCCCC=O,124-19-6,-,1143,nonanal,A171,10850781,-,-,-3.17,log(mol/L),3.17,-log(M),Test 1,,-,,-,,,,-
BrC1=CC=C(C)C=C1,106-38-7,-,1144,p-bromotoluene,A171,10850781,-,-,-3.19,log(mol/L),3.19,-log(M),Test 1,,-,,-,,,,-
BrC1=CC=CC=C1Cl,694-80-4,-,1145,1-bromo-2-chlorobenzene,A171,10850781,-,-,-3.19,log(mol/L),3.19,-log(M),Test 1,,-,,-,,,,-
CC1CC=CC=CC=CC=CC(OC2OC(C)C(O)C(N)C2O)CC3C(C(O)=O)C(O)CC(O3)(O)CC(O)CC4OC4C=CC(O1)=O,7681-93-8,-,1146,natamycin,A171,10850781,-,-,-3.21,log(mol/L),3.21,-log(M),Test 1,,-,,-,,,,-
O=C1C=CC2(C)C(CCC3C2C(O)CC4(C)C3CCC4(O)C(CO)=O)=C1,50-24-8,-,1147,Prednisolone,A171,10850781,-,-,-3.21,log(mol/L),3.21,-log(M),Test 1,,-,,-,,,,-
O=C1NCCN1C2=NC=C(N(=O)=O)S2,61-57-4,-,1148,niridazole,A171,10850781,-,-,-3.22,log(mol/L),3.22,-log(M),Test 1,,-,,-,,,,-
CC(C)CC=C,691-37-2,-,1149,4-methyl-1-pentene,A171,10850781,-,-,-3.24,log(mol/L),3.24,-log(M),Test 1,,-,,-,,,,-
ClC1=CC=C(Cl)C=C1,106-46-7,-,1150,"1,4-dichlorobenzene",A171,10850781,-,-,-3.27,log(mol/L),3.27,-log(M),Test 1,,-,,-,,,,-
CC(CCC1C(N(C2=CC=CC=C2)N(C3=CC=CC=C3)C1=O)=O)=O,853-34-9,-,1151,kebuzone,A171,10850781,-,-,-3.27,log(mol/L),3.27,-log(M),Test 1,,-,,-,,,,-
OC1=C2C3=C(C=C1)CC4C5C3(C(O2)C(C=C5)O)CCN4C,57-27-2,-,1152,Morphine,A171,10850781,-,-,-3.28,log(mol/L),3.28,-log(M),Test 1,,-,,-,,,,-
CCC1NC(C2=CC(S(N)(=O)=O)=C(C=C2N1)Cl)=O,73-49-4,-,1153,quinethazone,A171,10850781,-,-,-3.29,log(mol/L),3.29,-log(M),Test 1,,-,,-,,,,-
CCCCCCCCOC(N)=O,2029-64-3,-,1154,n-octyl carbamate,A171,10850781,-,-,-3.3,log(mol/L),3.3,-log(M),Test 1,,-,,-,,,,-
O=C(SCCC)N(CCCC)CC,1114-71-2,-,1155,pedulate,A171,10850781,-,-,-3.35,log(mol/L),3.35,-log(M),Test 1,,-,,-,,,,-
CC(C1=CC(N(=O)=O)=CC(N(=O)=O)=C1O)CC,88-85-7,-,1156,dinoseb,A171,10850781,-,-,-3.38,log(mol/L),3.38,-log(M),Test 1,,-,,-,,,,-
CC(C)OC(=O)NC1=CC=CC(Cl)=C1,101-21-3,-,1157,chloropham,A171,10850781,-,-,-3.38,log(mol/L),3.38,-log(M),Test 1,,-,,-,,,,-
O=C(OCC)CCCCCCC,106-32-1,-,1158,ethyl caprylate,A171,10850781,-,-,-3.39,log(mol/L),3.39,-log(M),Test 1,,-,,-,,,,-
O=C(SCC)N(C1CCCCC1)CC,1134-23-2,-,1159,cycloate,A171,10850781,-,-,-3.4,log(mol/L),3.4,-log(M),Test 1,,-,,-,,,,-
O=C(N1CCCCC1)C=CC=CC2=CC=3OCOC3C=C2,94-62-2,-,1160,piperine,A171,10850781,-,-,-3.46,log(mol/L),3.46,-log(M),Test 1,,-,,-,,,,-
IC1=C(NC(I)=C1I)I,87-58-1,-,1161,"2,3,4,5-tetraiodpyrrol",A171,10850781,-,-,-3.46,log(mol/L),3.46,-log(M),Test 1,,-,,-,,,,-
BrC1=CC(Br)=CC=C1,108-36-1,-,1162,"1,3-dibromobenzene",A171,10850781,-,-,-3.54,log(mol/L),3.54,-log(M),Test 1,,-,,-,,,,-
CC(C)C1=CC=C(NC(N(C)C)=O)C=C1,34123-59-6,-,1163,isoproturon,A171,10850781,-,-,-3.54,log(mol/L),3.54,-log(M),Test 1,,-,,-,,,,-
O=C(O)CCCCCCCCCC,112-37-8,-,1164,undedecanoic acid,A171,10850781,-,-,-3.55,log(mol/L),3.55,-log(M),Test 1,,-,,-,,,,-
C1C(O)CC2CCC3C4CCC(=O)C4(C)CC(O)C3C2(C)C1,514-17-0,-,1165,hydroxyisoandrosterone,A171,10850781,-,-,-3.59,log(mol/L),3.59,-log(M),Test 1,,-,,-,,,,-
OC1=C(O)C=C(C=C1)C2CC(C3=C(O)C=C(O)C=C3O2)=O,552-58-9,-,1166,eriodictyol,A171,10850781,-,-,-3.62,log(mol/L),3.62,-log(M),Test 1,,-,,-,,,,-
COC1=C2OC(=O)C=CC2=CC3=C1OC=C3,298-81-7,-,1167,methoxsalen,A171,10850781,-,-,-3.66,log(mol/L),3.66,-log(M),Test 1,,-,,-,,,,-
O=C1C(CC(OCC)=O)=C(O)C2=CC=CC=C2O1,548-00-5,-,1168,ethyl biscoumacetate,A171,10850781,-,-,-3.66,log(mol/L),3.66,-log(M),Test 1,,-,,-,,,,-
O=C(C1=CC(S(N)(=O)=O)=C(Cl)C=C1NCC2=CC=CO2)O,54-31-9,-,1169,Furosemide,A171,10850781,-,-,-3.66,log(mol/L),3.66,-log(M),Test 1,,-,,-,,,,-
CC(C1=CC=CC=C1)(C)C,98-06-6,-,1170,t-Butylbenzene,A171,10850781,-,-,-3.66,log(mol/L),3.66,-log(M),Test 1,,-,,-,,,,-
C1=2C=CC=CC1=NC3=C(C=CC=C3)C2,260-94-6,-,1171,acridine,A171,10850781,-,-,-3.67,log(mol/L),3.67,-log(M),Test 1,,-,,-,,,,-
CCC(C)CC,96-14-0,-,1172,3-Methylpentane,A171,10850781,-,-,-3.68,log(mol/L),3.68,-log(M),Test 1,,-,,-,,,,-
O=C(SCC)N(CC(C)C)CC(C)C,2008-41-5,-,1173,butylate,A171,10850781,-,-,-3.68,log(mol/L),3.68,-log(M),Test 1,,-,,-,,,,-
S=P(OC)(OC)OC1=CC=C(N(=O)=O)C=C1,298-00-0,-,1174,parathion methyl,A171,10850781,-,-,-3.68,log(mol/L),3.68,-log(M),Test 1,,-,,-,,,,-
NC1=CC=C(C2=NC=3C=CC(C)=CC3S2)C=C1,92-36-4,-,1175,2-(4-aminophenyl)-6-methyl-benzothiazole,A171,10850781,-,-,-3.68,log(mol/L),3.68,-log(M),Test 1,,-,,-,,,,-
CCCCOC1=CC(C(NCCN(CC)CC)=O)=C2C=CC=CC2=N1,85-79-0,-,1176,dibucaine,A171,10850781,-,-,-3.7,log(mol/L),3.7,-log(M),Test 1,,-,,-,,,,-
CC=1C=2C=CC=CC2C=CC1,90-12-0,-,1177,1-methylnaphthalene,A171,10850781,-,-,-3.7,log(mol/L),3.7,-log(M),Test 1,,-,,-,,,,-