SMILES,CASRN,EXTERNALID,N,NAME,ARTICLEID,PUBMEDID,PAGE,TABLE,Solubility_log(mol/L),UNIT {Water solubility},"Water solubility {measured, converted}",UNIT {Water solubility}.1,Dataset,Temperature,UNIT {Temperature},Ionic strength,UNIT {Ionic strength},comment (chemical),source,pH,UNIT {pH}
OC(=O)CC(O)CC(O)C=CC1=C(C2=CC=C(F)C=C2)C3=CC=CC=C3N1C(C)C,-,-,68,Fluvastatin,A165,18484495,-,3,-3.83,log(mol/L),3.83,-log(M),Test 1,,-,,-,,,,-
OC(=O)CC1=CC=CC=C1NC2=C(Cl)C=CC=C2Cl,-,-,50,Diclofenac,A165,18484495,-,3,-5.1,log(mol/L),5.1,-log(M),Test 1,,-,,-,,,,-
OC(=O)CC1=CC=CC=C1OC2=C(Cl)C=C(Cl)C=C2,-,-,62,Fenclofenac,A165,18484495,-,3,-3.85,log(mol/L),3.85,-log(M),Test 1,,-,,-,,,,-
OC1(CCN(CCCC(=O)C2=CC=C(F)C=C2)CC1)C3=CC=C(Cl)C=C3,-,-,71,Haloperidol,A165,18484495,-,3,-4.43,log(mol/L),4.43,-log(M),Test 1,,-,,-,,,,-
OC1N=C(C2=CC(Cl)=CC=C2NC1=O)C3=CC=CC=C3,-,-,115,Oxazepam,A165,18484495,-,3,-3.95,log(mol/L),3.95,-log(M),Test 1,,-,,-,,,,-
OC1N=C(C2=CC=CC=C2Cl)C3=CC(Cl)=CC=C3NC1=O,-,-,86,Lorazepam,A165,18484495,-,3,-3.6,log(mol/L),3.6,-log(M),Test 1,,-,,-,,,,-
S1C=CC2=C1C(O)=C(C(=O)NC3=CC=CC=N3)N(C)S2(=O)=O,-,-,152,Tenoxicam,A165,18484495,-,3,-3.88,log(mol/L),3.88,-log(M),Test 1,,-,,-,,,,-
SC(C)(C)C(N)C(=O)O,-,-,119,Penicillamine,A165,18484495,-,3,-0.13,log(mol/L),0.13,-log(M),Test 1,,-,,-,,,,-
O(CC(O)CNC(C)C)C1=C(C=C(NC(=O)CCC)C=C1)C(=O)C,-,-,1,Acebutolol,A165,18484495,-,3,-2.2,log(mol/L),2.2,-log(M),Test 1,,-,,-,,,,-
OC1C2C(C3C(C1)(C(CC3)C(=O)CO)C=O)CCC=4C2(CCC(=O)C4)C,-,-,3,aldosterone,A165,18484495,-,3,-3.85,log(mol/L),3.85,-log(M),Test 1,,-,,-,,,,-
S(=O)(CCCN(CC(O)COC1=CC=C(C=C1)C#N)CC)CCC,-,-,5,Almokalant,A165,18484495,-,3,-1.17,log(mol/L),1.17,-log(M),Test 1,,-,,-,,,,-
ClC1=CC2=C(N3C(=NN=C3C)CN=C2C4=CC=CC=C4)C=C1,-,-,6,Alprazolam,A165,18484495,-,3,-3.6,log(mol/L),3.6,-log(M),Test 1,,-,,-,,,,-
OC1C(C(CCCCCCC(O)=O)C(=O)C1)C=CC(O)CCCCC,-,-,8,Alprostadil,A165,18484495,-,3,-3.67,log(mol/L),3.67,-log(M),Test 1,,-,,-,,,,-
FC12C(C3C(C(OC(=O)CCCC)(C(C3)C)C(=O)CO)(CC1O)C)CCC=4C2(C)C=CC(=O)C4,-,-,24,betamethasone-17-valerate,A165,18484495,-,3,-4.71,log(mol/L),4.71,-log(M),Test 1,,-,,-,,,,-
S1(=O)(=O)N(CC(NCC)C2=C1SC(S(=O)(=O)N)=C2)CCCOC,-,-,26,Brinzolamide,A165,18484495,-,3,-2.95,log(mol/L),2.95,-log(M),Test 1,,-,,-,,,,-
S(=O)(=O)(N)C=1C(OC2=CC=CC=C2)=C(NCCCC)C=C(C1)C(O)=O,-,-,28,Bumetanide,A165,18484495,-,3,-3.56,log(mol/L),3.56,-log(M),Test 1,,-,,-,,,,-
O=C1NC(=O)NC(=O)C1(C(CC)C)CC,-,-,31,Butabarbital,A165,18484495,-,3,-2.39,log(mol/L),2.39,-log(M),Test 1,,-,,-,,,,-
ClC=1C(C2=NCC(=O)NC3=C2C=C([N+]([O-])=O)C=C3)=CC=CC1,-,-,43,Clonazepam,A165,18484495,-,3,-3.5,log(mol/L),3.5,-log(M),Test 1,,-,,-,,,,-
OC1C2C(C3C(C1)(C(CC3)C(=O)CO)C)CCC=4C2(CCC(=O)C4)C,-,-,44,corticosterone,A165,18484495,-,3,-3.24,log(mol/L),3.24,-log(M),Test 1,,-,,-,,,,-
O=C1NC(=O)NC(=O)C1(C=2CCCCC2)CC,-,-,46,cyclobarbital,A165,18484495,-,3,-2.17,log(mol/L),2.17,-log(M),Test 1,,-,,-,,,,-
OC1C2C(O)(C(=O)C=3C1C(C4=C(C3O)C(O)=CC=C4)C)C(O)=C(C(=O)C2N(C)C)C(=O)N,-,-,55,Doxycycline,A165,18484495,-,3,-2.53,log(mol/L),2.53,-log(M),Test 1,,-,,-,,,,-
FC1=C(N2CCN(CC2)C(=O)CO)C=CC(N3CC(OC3=O)CNC(=O)C)=C1,-,-,58,Eperezolid,A165,18484495,-,3,-1.97,log(mol/L),1.97,-log(M),Test 1,,-,,-,,,,-
ClC1=CC2=C(N3C(=NN=C3C)CN=C2C=4C(Cl)=CC=CC4)C=C1,-,-,70,Halcion,A165,18484495,-,3,-4.1,log(mol/L),4.1,-log(M),Test 1,,-,,-,,,,-
S1(=O)(=O)NCNC2=C1C=C(S(=O)(=O)N)C(=C2)C(F)(F)F,-,-,75,Hydroflumethiazide,A165,18484495,-,3,-3.04,log(mol/L),3.04,-log(M),Test 1,,-,,-,,,,-
ClC1=C(C2(OC(CO2)COC3=CC=C(N4CCN(CC4)C(=O)C)C=C3)CN5C=CN=C5)C=CC(Cl)=C1,-,-,82,Ketoconazole,A165,18484495,-,3,-3.8,log(mol/L),3.8,-log(M),Test 1,,-,,-,,,,-
OC(CNC(CCC1=CC=CC=C1)C)C2=CC(=C(O)C=C2)C(=O)N,-,-,83,Labetalol,A165,18484495,-,3,-3.45,log(mol/L),3.45,-log(M),Test 1,,-,,-,,,,-
S1C=2C(N=C1OCC(=O)N(C3=CC=CC=C3)C)=CC=CC2,-,-,88,Mefenacet,A165,18484495,-,3,-4.87,log(mol/L),4.87,-log(M),Test 1,,-,,-,,,,-
O=C1C(CCC(C1)C)C(C)C,-,-,90,Menthone,A165,18484495,-,3,-2.35,log(mol/L),2.35,-log(M),Test 1,,-,,-,,,,-
O1C2=C(C(=C3C(OC(=O)C(=C3[H])[H])=C2OC([H])([H])[H])[H])C(=C1[H])[H],-,-,93,methoxsalen,A165,18484495,-,3,-3.66,log(mol/L),3.66,-log(M),Test 1,,-,,-,,,,-
O=C1C2=C(N(C(C([H])([H])[H])([H])[H])C(=C1C(O[H])=O)[H])N=C(C(=C2[H])[H])C([H])([H])[H],-,-,103,nalidixic acid; Uronidix,A165,18484495,-,3,-3.37,log(mol/L),3.37,-log(M),Test 1,,-,,-,,,,-
O=C1NC2=C(C(=NC1)C3=CC=CC=C3)C=C([N+]([O-])=O)C=C2,-,-,108,Nitrazepam,A165,18484495,-,3,-3.8,log(mol/L),3.8,-log(M),Test 1,,-,,-,,,,-
OC(C=1C2C3C(C(C2=C(C4=CC=CC=C4)C=5N=CC=CC5)C1)C(=O)NC3=O)(C6=CC=CC=C6)C=7N=CC=CC7,-,-,110,Norbormide,A165,18484495,-,3,-3.93,log(mol/L),3.93,-log(M),Test 1,,-,,-,,,,-
C#CC1(CCC2C3CCC4=CC(=O)CCC4C3CCC21C)OC(C)=O,-,-,111,Norethindrone acetate,A165,18484495,-,3,-4.8,log(mol/L),4.8,-log(M),Test 1,,-,,-,,,,-
O1C2C(OC(=O)C)(C3C(C(O)C2)(C(=O)C(OC(=O)C)C=4C(C(O)(C3OC(=O)C5=CC=CC=C5)CC(OC(=O)C(O)C(NC(=O)C6=CC=CC=C6)C7=CC=CC=C7)C4C)(C)C)C)C1,-,-,117,Paclitaxel,A165,18484495,-,3,-6.63,log(mol/L),6.63,-log(M),Test 1,,-,,-,,,,-
S1C=2C(N(CC3CCCN(C3)C)C=4C1=CC=CC4)=CC=CC2,-,-,118,Pecazine,A165,18484495,-,3,-4.75,log(mol/L),4.75,-log(M),Test 1,,-,,-,,,,-
N(C(CC1=CC=CC=C1)C)C,-,-,124,Phenpromethamine,A165,18484495,-,3,-1.1,log(mol/L),1.1,-log(M),Test 1,,-,,-,,,,-
CC(=O)OC1CCC2(C)C(=CCC3C4CCC(=O)C4(C)CCC32)C1,-,-,126,Prasterone acetate,A165,18484495,-,3,-5.35,log(mol/L),5.35,-log(M),Test 1,,-,,-,,,,-
O=C(N1CC2N(CCC=3C2=CC=CC3)C(=O)C1)C4CCCCC4,-,-,127,Praziquantel,A165,18484495,-,3,-2.89,log(mol/L),2.89,-log(M),Test 1,,-,,-,,,,-
OC1(C2(C(C3C(C(O)C2)C4(C(CC3)=CC(=O)C=C4)C)CC1)C)C(=O)CO,-,-,129,Prednisolone,A165,18484495,-,3,-3.18,log(mol/L),3.18,-log(M),Test 1,,-,,-,,,,-
ClC1=C(C2(OC(CO2)CCC)CN3N=CN=C3)C=CC(Cl)=C1,-,-,132,Propiconazole,A165,18484495,-,3,-3.49,log(mol/L),3.49,-log(M),Test 1,,-,,-,,,,-
OC(=O)C1C(C2=C(C1C3=CC=4OCOC4C=C3)C=CC(OCCC)=C2)C5=C(OCC(O)=O)C=C(OC)C=C5,-,-,142,SB209670,A165,18484495,-,3,-6.77,log(mol/L),6.77,-log(M),Test 1,,-,,-,,,,-
S(=O)(CC(NC(=O)C=CC1=C(NC(=O)NC1=O)C)CO)CSC,-,-,144,Sparsomycin,A165,18484495,-,3,-1.98,log(mol/L),1.98,-log(M),Test 1,,-,,-,,,,-
Cl.O=C(OCCN(CC)CC)C1=CC=C(OCCCC)C=C1,-,-,145,stadacaine,A165,18484495,-,3,-3.84,log(mol/L),3.84,-log(M),Test 1,,-,,-,,,,-
S(=O)(=O)(N=C(N)N)C1=CC=C(N)C=C1,-,-,147,sulfaguanidine,A165,18484495,-,3,-1.99,log(mol/L),1.99,-log(M),Test 1,,-,,-,,,,-
S(=O)(=O)(N)C1=CC=C(N)C=C1,-,-,148,sulfanilamide,A165,18484495,-,3,-1.34,log(mol/L),1.34,-log(M),Test 1,,-,,-,,,,-
O=C1NC(=O)NC(=O)C1(C(CC)C)CC=C,-,-,151,Talbutal,A165,18484495,-,3,-2.02,log(mol/L),2.02,-log(M),Test 1,,-,,-,,,,-
O=C1NC(=O)CCC1N2C(=O)C=3C(C2=O)=CC=CC3,-,-,155,Thalidomide,A165,18484495,-,3,-2.68,log(mol/L),2.68,-log(M),Test 1,,-,,-,,,,-
O1C2C34C(C(N(CC3)C)CC5=C4C1=C(OC)C=C5)=CC=C2OC,-,-,156,Thebaine,A165,18484495,-,3,-2.66,log(mol/L),2.66,-log(M),Test 1,,-,,-,,,,-
S=C1NC(=O)C(C(CCC)C)(CC)C(=O)N1,-,-,158,thiopental,A165,18484495,-,3,-3.36,log(mol/L),3.36,-log(M),Test 1,,-,,-,,,,-
S(=O)(=O)(NC=1C=C(C(C2=C(O)CC(OC2=O)(CCC3=CC=CC=C3)CCC)CC)C=CC1)C4=NC=C(C=C4)C(F)(F)F,-,-,160,Tipranavir,A165,18484495,-,3,-6.3,log(mol/L),6.3,-log(M),Test 1,,-,,-,,,,-
O=C(C1C2(C(C3C(C4(C(CC3)=CC(=O)C=C4)C)=CC2)CC1C)C)CN5CCN(CC5)C6=NC(N7CCCC7)=NC(N8CCCC8)=C6,-,-,161,Tirilazad,A165,18484495,-,3,-7.59,log(mol/L),7.59,-log(M),Test 1,,-,,-,,,,-
OC1=C(C(CCN(C(C)C)C(C)C)C2=CC=CC=C2)C=C(C=C1)C,-,-,162,Tolterodine,A165,18484495,-,3,-2.58,log(mol/L),2.58,-log(M),Test 1,,-,,-,,,,-
S1C2=C(N(CCCN(C)C)C=3C1=CC=CC3)C=C(C=C2)C(F)(F)F,-,-,165,triflupromazine,A165,18484495,-,3,-4.7,log(mol/L),4.7,-log(M),Test 1,,-,,-,,,,-
CCCC(CCC)C(=O)O,-,-,171,Valproic acid,A165,18484495,-,3,-1.86,log(mol/L),1.86,-log(M),Test 1,,-,,-,,,,-
ClCC(Cl)(Cl)Cl,-,-,1,"1,1,1,2-tetrachloroethane",A170,15154768,-,-,-2.18,log(mol/L),2.18,-log(M),,,-,,-,,,,-
CC(Cl)(Cl)Cl,-,-,2,"1,1,1-Trichloroethane",A170,15154768,-,-,-2.0,log(mol/L),2.0,-log(M),,,-,,-,,,,-
ClC(Cl)C(Cl)Cl,-,-,3,"1,1,2,2-Tetrachloroethane",A170,15154768,-,-,-1.74,log(mol/L),1.74,-log(M),,,-,,-,,,,-
ClCC(Cl)Cl,-,-,4,"1,1,2-trichloroethane",A170,15154768,-,-,-1.48,log(mol/L),1.48,-log(M),,,-,,-,,,,-
FC(F)(Cl)C(F)(Cl)Cl,-,-,5,"1,1,2-trichlorotrifluoroethane",A170,15154768,-,-,-3.04,log(mol/L),3.04,-log(M),,,-,,-,,,,-
CC(Cl)Cl,-,-,6,"1,1-dichloroethane",A170,15154768,-,-,-1.29,log(mol/L),1.29,-log(M),,,-,,-,,,,-
ClC(=C)Cl,-,-,7,"1,1-dichloroethylene",A170,15154768,-,-,-1.64,log(mol/L),1.64,-log(M),,,-,,-,,,,-
CCOC(C)OCC,-,-,8,"1,1-diethoxyethane",A170,15154768,-,-,-0.43,log(mol/L),0.43,-log(M),,,-,,-,,,,-
ClC1=CC=C(Cl)C(Cl)=C1Cl,-,-,9,"1,2,3,4-tetrachlorobenzene",A170,15154768,-,-,-4.57,log(mol/L),4.57,-log(M),,,-,,-,,,,-
C1CCC2=CC=CC=C2C1,-,-,10,"1,2,3,4-Tetrahydronapthalene",A170,15154768,-,-,-4.37,log(mol/L),4.37,-log(M),,,-,,-,,,,-
ClC1=CC(Cl)=C(Cl)C(Cl)=C1,-,-,11,"1,2,3,5-tetrachlorobenzene",A170,15154768,-,-,-4.63,log(mol/L),4.63,-log(M),,,-,,-,,,,-
ClC1=CC=CC(Cl)=C1Cl,-,-,12,"1,2,3-trichlorobenzene",A170,15154768,-,-,-4.0,log(mol/L),4.0,-log(M),,,-,,-,,,,-
CC1=CC=CC(C)=C1C,-,-,13,"1,2,3-trimethylbenzene",A170,15154768,-,-,-3.2,log(mol/L),3.2,-log(M),,,-,,-,,,,-
BrC1=CC(Br)=C(Br)C=C1Br,-,-,14,"1,2,4,5-Tetrabromobenzene",A170,15154768,-,-,-6.98,log(mol/L),6.98,-log(M),,,-,,-,,,,-
ClC1=CC(Cl)=C(Cl)C=C1Cl,-,-,15,"1,2,4,5-Tetrachlorobenzene",A170,15154768,-,-,-5.56,log(mol/L),5.56,-log(M),,,-,,-,,,,-
CC1=CC(C)=C(C)C=C1C,-,-,16,"1,2,4,5-Tetramethylbenzene",A170,15154768,-,-,-4.59,log(mol/L),4.59,-log(M),,,-,,-,,,,-
C1(Br)=C(Br)C=C(Br)C=C1,-,-,17,"1,2,4-tribromobenzene",A170,15154768,-,-,-4.5,log(mol/L),4.5,-log(M),,,-,,-,,,,-
ClC1=CC=C(Cl)C(Cl)=C1,-,-,18,"1,2,4-trichlorobenzene",A170,15154768,-,-,-3.59,log(mol/L),3.59,-log(M),,,-,,-,,,,-
CC1=CC=C(C)C(C)=C1,-,-,19,"1,2,4-trimethylbenzene",A170,15154768,-,-,-3.31,log(mol/L),3.31,-log(M),,,-,,-,,,,-
OC1=CC=CC=C1O,-,-,20,"1,2-benzenediol",A170,15154768,-,-,0.62,log(mol/L),-0.62,-log(M),,,-,,-,,,,-
BrC1=CC=CC=C1Br,-,-,21,"1,2-dibromobenzene",A170,15154768,-,-,-3.5,log(mol/L),3.5,-log(M),,,-,,-,,,,-
BrCCBr,-,-,22,"1,2-dibromoethane",A170,15154768,-,-,-1.68,log(mol/L),1.68,-log(M),,,-,,-,,,,-
ClC1=CC=CC=C1Cl,-,-,23,"1,2-Dichlorobenzene",A170,15154768,-,-,-3.05,log(mol/L),3.05,-log(M),,,-,,-,,,,-
ClCCCl,-,-,24,"1,2-dichloroethane",A170,15154768,-,-,-1.06,log(mol/L),1.06,-log(M),,,-,,-,,,,-
CC(Cl)CCl,-,-,25,"1,2-dichloropropane",A170,15154768,-,-,-1.6,log(mol/L),1.6,-log(M),,,-,,-,,,,-
FC(F)(Cl)C(F)(F)Cl,-,-,26,"1,2-dichlorotetrafluoroethane",A170,15154768,-,-,-2.74,log(mol/L),2.74,-log(M),,,-,,-,,,,-
CCOCCOCC,-,-,27,"1,2-diethoxyethane",A170,15154768,-,-,-0.77,log(mol/L),0.77,-log(M),,,-,,-,,,,-
CCC1=CC=CC=C1CC,-,-,28,"1,2-Diethylbenzene",A170,15154768,-,-,-3.28,log(mol/L),3.28,-log(M),,,-,,-,,,,-
O=N(=O)C1=CC=CC=C1N(=O)=O,-,-,29,"1,2-Dinitrobenzene",A170,15154768,-,-,-3.1,log(mol/L),3.1,-log(M),,,-,,-,,,,-
CC1CO1,-,-,30,"1,2-Propylene oxide",A170,15154768,-,-,-0.59,log(mol/L),0.59,-log(M),,,-,,-,,,,-
BrC1=CC(Br)=CC(Br)=C1,-,-,31,"1,3,5-Tribromobenzene",A170,15154768,-,-,-5.6,log(mol/L),5.6,-log(M),,,-,,-,,,,-
ClC1=CC(Cl)=CC(Cl)=C1,-,-,32,"1,3,5-trichlorobenzene",A170,15154768,-,-,-4.48,log(mol/L),4.48,-log(M),,,-,,-,,,,-
CC1=CC(C)=CC(C)=C1,-,-,33,"1,3,5-trimethylbenzene",A170,15154768,-,-,-3.4,log(mol/L),3.4,-log(M),,,-,,-,,,,-
O=N(=O)C1=CC(=CC(=C1)N(=O)=O)N(=O)=O,-,-,34,"1,3,5-Trinitrobenzene",A170,15154768,-,-,-2.89,log(mol/L),2.89,-log(M),,,-,,-,,,,-
OC1=CC=CC(O)=C1,-,-,35,"1,3-benzenediol",A170,15154768,-,-,0.81,log(mol/L),-0.81,-log(M),,,-,,-,,,,-
C=CC=C,-,-,36,"1,3-Butadiene",A170,15154768,-,-,-1.87,log(mol/L),1.87,-log(M),,,-,,-,,,,-
BrC1=CC=CC(Br)=C1,-,-,37,"1,3-dibromobenzene",A170,15154768,-,-,-3.54,log(mol/L),3.54,-log(M),,,-,,-,,,,-
ClC1=CC=CC(Cl)=C1,-,-,38,"1,3-Dichlorobenzene",A170,15154768,-,-,-3.04,log(mol/L),3.04,-log(M),,,-,,-,,,,-
ClCCCCl,-,-,39,"1,3-dichloropropane",A170,15154768,-,-,-1.62,log(mol/L),1.62,-log(M),,,-,,-,,,,-
CCNC(=S)NCC,-,-,40,"1,3-diethylthiourea",A170,15154768,-,-,-1.46,log(mol/L),1.46,-log(M),,,-,,-,,,,-
FC1=CC=CC(F)=C1,-,-,41,"1,3-Difluorobenzene",A170,15154768,-,-,-2.0,log(mol/L),2.0,-log(M),,,-,,-,,,,-
CC1=CC(C)=C2C=CC=CC2=C1,-,-,42,"1,3-dimethylnaphthalene",A170,15154768,-,-,-4.29,log(mol/L),4.29,-log(M),,,-,,-,,,,-
O=N(=O)C1=CC=CC(=C1)N(=O)=O,-,-,43,"1,3-Dinitrobenzene",A170,15154768,-,-,-2.29,log(mol/L),2.29,-log(M),,,-,,-,,,,-
OC1=CC=C(O)C=C1,-,-,44,"1,4-benzenediol",A170,15154768,-,-,-0.17,log(mol/L),0.17,-log(M),,,-,,-,,,,-
C1C=CCC=C1,-,-,45,"1,4-cyclohexadiene",A170,15154768,-,-,-2.06,log(mol/L),2.06,-log(M),,,-,,-,,,,-
BrC1=CC=C(Br)C=C1,-,-,46,"1,4-dibromobenzene",A170,15154768,-,-,-4.07,log(mol/L),4.07,-log(M),,,-,,-,,,,-
ClC1=CC=C(Cl)C=C1,-,-,47,"1,4-dichlorobenzene",A170,15154768,-,-,-3.27,log(mol/L),3.27,-log(M),,,-,,-,,,,-
CCC1=CC=C(CC)C=C1,-,-,48,"1,4-diethylbenzene",A170,15154768,-,-,-3.75,log(mol/L),3.75,-log(M),,,-,,-,,,,-
FC1=CC=C(F)C=C1,-,-,49,"1,4-Difluorobenzene",A170,15154768,-,-,-1.97,log(mol/L),1.97,-log(M),,,-,,-,,,,-
CC1=CC=C(C)C=2C=CC=CC12,-,-,50,"1,4-dimethylnaphthalene",A170,15154768,-,-,-4.14,log(mol/L),4.14,-log(M),,,-,,-,,,,-
O=N(=O)C1=CC=C(C=C1)N(=O)=O,-,-,51,"1,4-Dinitrobenzene",A170,15154768,-,-,-3.39,log(mol/L),3.39,-log(M),,,-,,-,,,,-
C=CCC=C,-,-,52,"1,4-pentadiene",A170,15154768,-,-,-2.09,log(mol/L),2.09,-log(M),,,-,,-,,,,-
CC1=CC=CC=2C(C)=CC=CC12,-,-,53,"1,5-Dimethlnapthalene",A170,15154768,-,-,-4.679,log(mol/L),4.679,-log(M),,,-,,-,,,,-
C=CCCC=C,-,-,54,"1,5-hexadiene",A170,15154768,-,-,-2.68,log(mol/L),2.68,-log(M),,,-,,-,,,,-
C1=CN=C2C(=C1)C=CC=3N=CC=CC23,-,-,55,"1,7-phenantroline",A170,15154768,-,-,-2.68,log(mol/L),2.68,-log(M),,,-,,-,,,,-
CC12CCC(CC1)C(C)(C)O2,-,-,56,"1,8-Cineole",A170,15154768,-,-,-1.74,log(mol/L),1.74,-log(M),,,-,,-,,,,-
CC1(O)CCC2C3CCC4=CC(=O)CCC4(C)C3CCC21C,-,-,57,17a-Methyltestosterone,A170,15154768,-,-,-3.999,log(mol/L),3.999,-log(M),,,-,,-,,,,-
NC1=CC=CC2=NC=3C=CC=CC3C=C12,-,-,58,1-aminoacridine,A170,15154768,-,-,-4.22,log(mol/L),4.22,-log(M),,,-,,-,,,,-
CC(C)CBr,-,-,59,1-bromo-2-methylpropane,A170,15154768,-,-,-2.43,log(mol/L),2.43,-log(M),,,-,,-,,,,-
CCCCBr,-,-,60,1-bromobutane,A170,15154768,-,-,-2.37,log(mol/L),2.37,-log(M),,,-,,-,,,,-
CCCCCCCBr,-,-,61,1-bromoheptane,A170,15154768,-,-,-4.43,log(mol/L),4.43,-log(M),,,-,,-,,,,-
C(CCC)CCBr,-,-,62,1-bromohexane,A170,15154768,-,-,-3.81,log(mol/L),3.81,-log(M),,,-,,-,,,,-
BrC1=CC=CC=2C=CC=CC12,-,-,63,1-Bromonapthalene,A170,15154768,-,-,-4.35,log(mol/L),4.35,-log(M),,,-,,-,,,,-
CCCCCCCCBr,-,-,64,1-bromooctane,A170,15154768,-,-,-5.06,log(mol/L),5.06,-log(M),,,-,,-,,,,-
CCCCCBr,-,-,65,1-bromopentane,A170,15154768,-,-,-3.08,log(mol/L),3.08,-log(M),,,-,,-,,,,-
C(CBr)C,-,-,66,1-bromopropane,A170,15154768,-,-,-1.73,log(mol/L),1.73,-log(M),,,-,,-,,,,-
CCCCO,-,-,67,1-Butanol,A170,15154768,-,-,0.0,log(mol/L),0.0,-log(M),,,-,,-,,,,-
CCC=C,-,-,68,1-Butene,A170,15154768,-,-,-1.94,log(mol/L),1.94,-log(M),,,-,,-,,,,-
CCC#C,-,-,69,1-Butyne,A170,15154768,-,-,-1.24,log(mol/L),1.24,-log(M),,,-,,-,,,,-
ClCCBr,-,-,70,1-chloro-2-bromoethane,A170,15154768,-,-,-1.32,log(mol/L),1.32,-log(M),,,-,,-,,,,-
ClCC(C)C,-,-,71,1-chloro-2-methylpropane,A170,15154768,-,-,-2.0,log(mol/L),2.0,-log(M),,,-,,-,,,,-
CCCCCl,-,-,72,1-Chlorobutane,A170,15154768,-,-,-2.03,log(mol/L),2.03,-log(M),,,-,,-,,,,-
CCCCCCCCl,-,-,73,1-chloroheptane,A170,15154768,-,-,-4.0,log(mol/L),4.0,-log(M),,,-,,-,,,,-
CCCCCCCl,-,-,74,1-chlorohexane,A170,15154768,-,-,-3.12,log(mol/L),3.12,-log(M),,,-,,-,,,,-
ClC1=CC=CC=2C=CC=CC12,-,-,75,1-Chloronapthalene,A170,15154768,-,-,-3.93,log(mol/L),3.93,-log(M),,,-,,-,,,,-
CCCCCCl,-,-,76,1-Chloropentane,A170,15154768,-,-,-2.73,log(mol/L),2.73,-log(M),,,-,,-,,,,-
CCCCl,-,-,77,1-Chloropropane,A170,15154768,-,-,-1.47,log(mol/L),1.47,-log(M),,,-,,-,,,,-
CCCCCCCCCCO,-,-,78,1-decanol,A170,15154768,-,-,-3.63,log(mol/L),3.63,-log(M),,,-,,-,,,,-
CCCCCCCCC=C,-,-,79,1-Decene,A170,15154768,-,-,-5.51,log(mol/L),5.51,-log(M),,,-,,-,,,,-
CCCCCCCCCCCCO,-,-,80,1-Dodecanol,A170,15154768,-,-,-4.8,log(mol/L),4.8,-log(M),,,-,,-,,,,-
CCC1=CC=CC=2C=CC=CC12,-,-,81,1-ethylnaphthalene,A170,15154768,-,-,-4.17,log(mol/L),4.17,-log(M),,,-,,-,,,,-
CCCCCCCO,-,-,82,1-heptanol,A170,15154768,-,-,-1.81,log(mol/L),1.81,-log(M),,,-,,-,,,,-
CCCCCC=C,-,-,83,1-Heptene,A170,15154768,-,-,-3.73,log(mol/L),3.73,-log(M),,,-,,-,,,,-
CCCCCC#C,-,-,84,1-heptyne,A170,15154768,-,-,-3.01,log(mol/L),3.01,-log(M),,,-,,-,,,,-
CCCCCCCCCCCCCCCCO,-,-,85,1-Hexadecanol,A170,15154768,-,-,-7.0,log(mol/L),7.0,-log(M),,,-,,-,,,,-
CCCCCCO,-,-,86,1-hexanol,A170,15154768,-,-,-1.24,log(mol/L),1.24,-log(M),,,-,,-,,,,-
CCCCC=C,-,-,87,1-hexene,A170,15154768,-,-,-3.23,log(mol/L),3.23,-log(M),,,-,,-,,,,-
CCCC(O)C=C,-,-,88,1-Hexene-3-ol,A170,15154768,-,-,-0.59,log(mol/L),0.59,-log(M),,,-,,-,,,,-
CCCCC#C,-,-,89,1-hexyne,A170,15154768,-,-,-2.36,log(mol/L),2.36,-log(M),,,-,,-,,,,-
CCCCI,-,-,90,1-iodobutane,A170,15154768,-,-,-2.96,log(mol/L),2.96,-log(M),,,-,,-,,,,-
CCCCCCCI,-,-,91,1-iodoheptane,A170,15154768,-,-,-4.81,log(mol/L),4.81,-log(M),,,-,,-,,,,-
IC1=CC=CC=2C=CC=CC12,-,-,92,1-Iodonapthalene,A170,15154768,-,-,-4.55,log(mol/L),4.55,-log(M),,,-,,-,,,,-
CCCI,-,-,93,1-iodopropane,A170,15154768,-,-,-2.29,log(mol/L),2.29,-log(M),,,-,,-,,,,-
CC1=CCCCC1,-,-,94,1-methylcyclohexene,A170,15154768,-,-,-3.27,log(mol/L),3.27,-log(M),,,-,,-,,,,-
CC1=CC=CC2=C1CC3=CC=CC=C32,-,-,95,1-methylfluorene,A170,15154768,-,-,-5.22,log(mol/L),5.22,-log(M),,,-,,-,,,,-
CC1=CC=CC=2C=CC=CC12,-,-,96,1-methylnaphthalene,A170,15154768,-,-,-3.7,log(mol/L),3.7,-log(M),,,-,,-,,,,-
CC1=CC=CC2=C1C=CC=3C=CC=CC32,-,-,97,1-Methylphenanthrene,A170,15154768,-,-,-5.85,log(mol/L),5.85,-log(M),,,-,,-,,,,-
CN1C=CC(=O)NC1=O,-,-,98,1-methyluracil,A170,15154768,-,-,-0.807,log(mol/L),0.807,-log(M),,,-,,-,,,,-
OC1=CC=CC=2C=CC=CC12,-,-,99,1-Napthol,A170,15154768,-,-,-2.22,log(mol/L),2.22,-log(M),,,-,,-,,,,-
NC1=CC=CC=2C=CC=CC12,-,-,100,1-Napthylamine,A170,15154768,-,-,-1.92,log(mol/L),1.92,-log(M),,,-,,-,,,,-
O=N(=O)C1=CC=CC=2C=CC=CC12,-,-,101,1-Nitronapthalene,A170,15154768,-,-,-3.54,log(mol/L),3.54,-log(M),,,-,,-,,,,-
CCCN(=O)=O,-,-,102,1-nitropropane,A170,15154768,-,-,-0.8,log(mol/L),0.8,-log(M),,,-,,-,,,,-
CCCCCCCCCO,-,-,103,1-nonanol,A170,15154768,-,-,-3.01,log(mol/L),3.01,-log(M),,,-,,-,,,,-
CCCCCCCC=C,-,-,104,1-Nonene,A170,15154768,-,-,-5.05,log(mol/L),5.05,-log(M),,,-,,-,,,,-
CCCCCCCC#C,-,-,105,1-nonyne,A170,15154768,-,-,-4.24,log(mol/L),4.24,-log(M),,,-,,-,,,,-
CCCCCCCCCCCCCCCCCCO,-,-,106,1-Octadecanol,A170,15154768,-,-,-8.4,log(mol/L),8.4,-log(M),,,-,,-,,,,-
CCCCCCCCO,-,-,107,1-octanol,A170,15154768,-,-,-2.39,log(mol/L),2.39,-log(M),,,-,,-,,,,-
CCCCCCC=C,-,-,108,1-Octene,A170,15154768,-,-,-4.44,log(mol/L),4.44,-log(M),,,-,,-,,,,-
CCCCCCC#C,-,-,109,1-octyne,A170,15154768,-,-,-3.66,log(mol/L),3.66,-log(M),,,-,,-,,,,-
CCCCCCCCCCCCCCCO,-,-,110,1-Pentadecanol,A170,15154768,-,-,-6.35,log(mol/L),6.35,-log(M),,,-,,-,,,,-
CCCCCO,-,-,111,1-Pentanol,A170,15154768,-,-,-0.6,log(mol/L),0.6,-log(M),,,-,,-,,,,-
CCCC=C,-,-,112,1-pentene,A170,15154768,-,-,-2.68,log(mol/L),2.68,-log(M),,,-,,-,,,,-
CCCC#C,-,-,113,1-pentyne,A170,15154768,-,-,-1.64,log(mol/L),1.64,-log(M),,,-,,-,,,,-
CC(O)C1=CC=CC=C1,-,-,114,1-phenylethanol,A170,15154768,-,-,-0.92,log(mol/L),0.92,-log(M),,,-,,-,,,,-
CCCO,-,-,115,1-Propanol,A170,15154768,-,-,0.62,log(mol/L),-0.62,-log(M),,,-,,-,,,,-
CCCCCCCCCCCCCCO,-,-,116,1-Tetradecanol,A170,15154768,-,-,-5.84,log(mol/L),5.84,-log(M),,,-,,-,,,,-
ClC1=C(Cl)C(Cl)=C(C(Cl)=C1Cl)C2=C(Cl)C(Cl)=C(Cl)C(Cl)=C2Cl,-,-,117,"2,2',3,3',4,4',5,5',6,6'-PCB",A170,15154768,-,-,-11.6,log(mol/L),11.6,-log(M),,,-,,-,,,,-
ClC1=CC(=C(Cl)C(Cl)=C1Cl)C2=CC(Cl)=C(Cl)C(Cl)=C2Cl,-,-,118,"2,2',3,3',4,4',5,5'-PCB",A170,15154768,-,-,-9.16,log(mol/L),9.16,-log(M),,,-,,-,,,,-
ClC1=CC=C(C(Cl)=C1Cl)C2=CC=C(Cl)C(Cl)=C2Cl,-,-,119,"2,2',3,3',4,4'-PCB",A170,15154768,-,-,-8.01,log(mol/L),8.01,-log(M),,,-,,-,,,,-
ClC1=CC(Cl)=C(Cl)C(=C1Cl)C2=C(Cl)C(Cl)=CC(Cl)=C2Cl,-,-,120,"2,2',3,3',5,5',6,6'-PCB",A170,15154768,-,-,-9.15,log(mol/L),9.15,-log(M),,,-,,-,,,,-
ClC1=CC=CC(=C1Cl)C2=C(Cl)C(Cl)=CC(Cl)=C2Cl,-,-,121,"2,2',3,3',5,6-PCB",A170,15154768,-,-,-8.6,log(mol/L),8.6,-log(M),,,-,,-,,,,-