SMILES,CASRN,EXTERNALID,N,NAME,ARTICLEID,PUBMEDID,PAGE,TABLE,Solubility_log(mol/L),UNIT {Water solubility},"Water solubility {measured, converted}",UNIT {Water solubility}.1,Dataset,Temperature,UNIT {Temperature},Ionic strength,UNIT {Ionic strength},comment (chemical),source,pH,UNIT {pH}
ClC1=C(C=C(C=C1)Cl)C2=C(C=CC=C2Cl)Cl,41464-41-9,-,848,"2,2',5,6'-pcb",A171,10850781,-,-,-6.8,log(mol/L),6.8,-log(M),Train,,-,,-,,,,-
CCC1=CC=2C=C3C=CC=CC3=CC2C=C1,52251-71-5,-,849,2-ethylanthracene,A171,10850781,-,-,-6.89,log(mol/L),6.89,-log(M),Train,,-,,-,,,,-
ClC(Cl)=C(C1=CC=C(Cl)C=C1)C2=CC=C(Cl)C=C2,72-55-9,-,850,"P,P'-DDE",A171,10850781,-,-,-6.9,log(mol/L),6.9,-log(M),Train,,-,,-,,,,-
CC1=CC=2C=C3C=CC=CC3=CC2C=C1,613-12-7,-,851,2-methylanthracene,A171,10850781,-,-,-6.96,log(mol/L),6.96,-log(M),Train,,-,,-,,,,-
CC=1C=2C=3C=CC=CC3C=CC2C(C)=C4C1C=CC=C4,57-97-6,-,852,"7,12-dimethylbenz(a)anthracene",A171,10850781,-,-,-7.02,log(mol/L),7.02,-log(M),Train,,-,,-,,,,-
C1(C2=CC=C(C3=CC=CC=C3)C=C2)=CC=CC=C1,92-94-4,-,853,p-terphenyl,A171,10850781,-,-,-7.11,log(mol/L),7.11,-log(M),Train,,-,,-,,,,-
ClC(Cl)C(C1=CC=C(Cl)C=C1)C2=CC=C(Cl)C=C2,72-54-8,-,854,"P,P'-DDD",A171,10850781,-,-,-7.2,log(mol/L),7.2,-log(M),Train,,-,,-,,,,-
ClC1=C(C(=CC(=C1Cl)C2=CC=CC=C2Cl)Cl)Cl,55312-69-1,-,855,"2,2',3,4,5-PCB",A171,10850781,-,-,-7.21,log(mol/L),7.21,-log(M),Train,,-,,-,,,,-
ClC1=CC=C(Cl)C=C1C2=CC=C(Cl)C(Cl)=C2,32598-11-1,-,856,"2,3',4',5-PCB",A171,10850781,-,-,-7.25,log(mol/L),7.25,-log(M),Train,,-,,-,,,,-
ClC1=C(Cl)C=CC=C1C2=C(Cl)C(Cl)=CC=C2,38444-93-8,-,857,"2,2',3,3'-PCB",A171,10850781,-,-,-7.28,log(mol/L),7.28,-log(M),Train,,-,,-,,,,-
CC1C2(OCC(C)CC2)OC3CC4C5CC=C6CC(O)CCC6(C)C5CCC4(C)C31,512-04-9,-,858,diosgenin,A171,10850781,-,-,-7.32,log(mol/L),7.32,-log(M),Train,,-,,-,,,,-
ClC1=C(C(=CC(=C1)Cl)Cl)C2=C(C=CC=C2Cl)Cl,56558-16-8,-,859,"2,2,4,6,6'-PCB",A171,10850781,-,-,-7.32,log(mol/L),7.32,-log(M),Train,,-,,-,,,,-
ClC1=CC(Cl)=C(Cl)C=C1C2=CC=C(Cl)C(Cl)=C2,31508-00-6,-,860,"2,3',4,4',5-PCB",A171,10850781,-,-,-7.39,log(mol/L),7.39,-log(M),Train,,-,,-,,,,-
ClC1=CC=CC(Cl)=C1C2=C(Cl)C=CC=C2Cl,15968-05-5,-,861,"2,2',6,6'-PCB",A171,10850781,-,-,-7.39,log(mol/L),7.39,-log(M),Train,,-,,-,,,,-
ClC1=C(C2=CC(Cl)=CC=C2Cl)C(Cl)=C(Cl)C=C1Cl,52663-63-5,-,863,"2,2',3,5,5',6-PCB",A171,10850781,-,-,-7.42,log(mol/L),7.42,-log(M),Train,,-,,-,,,,-
ClC1=C(C(=CC(=C1Cl)Cl)Cl)C2=CC=CC=C2Cl,55215-17-3,-,864,"2,2',3,4,6-PCB",A171,10850781,-,-,-7.43,log(mol/L),7.43,-log(M),Train,,-,,-,,,,-
ClC1=C(C2=CC=C(Cl)C(Cl)=C2)C(Cl)=C(Cl)C(Cl)=C1,74472-42-7,-,865,"2,3,3',4,4'6-PCB",A171,10850781,-,-,-7.66,log(mol/L),7.66,-log(M),Train,,-,,-,,,,-
ClC1=CC=C(Cl)C(C2=CC(Cl)=C(Cl)C(Cl)=C2Cl)=C1,52712-04-6,-,866,"2,2',3,4,5,5'-PCB",A171,10850781,-,-,-7.68,log(mol/L),7.68,-log(M),Train,,-,,-,,,,-
ClC1=CC=C(C2=CC=C(C(Cl)=C2)Cl)C(Cl)=C1,32598-10-0,-,867,"2,3',4,4'-PCB",A171,10850781,-,-,-7.8,log(mol/L),7.8,-log(M),Train,,-,,-,,,,-
ClC1=C(C(=CC(=C1Cl)C2=CC(=C(C=C2)Cl)Cl)Cl)Cl,38380-08-4,-,868,"2,3,3',4,4',5-PCB",A171,10850781,-,-,-7.82,log(mol/L),7.82,-log(M),Train,,-,,-,,,,-
ClC1=C(Cl)C(Cl)=C(Cl)C(Cl)=C1C2=CC=CC=C2,18259-05-7,-,869,"2,3,4,5,6-pcb",A171,10850781,-,-,-7.92,log(mol/L),7.92,-log(M),Train,,-,,-,,,,-
ClC1=C(C2=CC(Cl)=C(Cl)C=C2Cl)C(Cl)=C(Cl)C(Cl)=C1,52663-69-1,-,870,"2,2',3,4,4',5',6-PCB",A171,10850781,-,-,-7.92,log(mol/L),7.92,-log(M),Train,,-,,-,,,,-
CC1=CC=C2C=C3C(C=CC4=C3C=CC=C4)=C5C2=C1CC5,56-49-5,-,871,3-methylcholanthrene,A171,10850781,-,-,-7.92,log(mol/L),7.92,-log(M),Train,,-,,-,,,,-
C=12C=CC3=C(C=CC=C3)C1C=4C5=C(C=CC=C52)C=CC4,205-82-3,-,872,benzo(j)fluoranthene,A171,10850781,-,-,-8.0,log(mol/L),8.0,-log(M),Train,,-,,-,,,,-
ClC1=CC=C(C2=CC=C(C(Cl)=C2Cl)Cl)C(Cl)=C1Cl,38380-07-3,-,873,"2,2',3,3',4,4'-PCB",A171,10850781,-,-,-8.01,log(mol/L),8.01,-log(M),Train,,-,,-,,,,-
C=12C3=C4C=CC=C3C=CC1C=C5C(C=CC=C5)=C2C=C4,50-32-8,-,874,benzo(a)pyrene,A171,10850781,-,-,-8.19,log(mol/L),8.19,-log(M),Train,,-,,-,,,,-
C=12C=3C=4C=CC=CC4C1C=CC=C2C=5C=CC=CC5C3,205-99-2,-,875,benzo(b)fluoranthene,A171,10850781,-,-,-8.23,log(mol/L),8.23,-log(M),Train,,-,,-,,,,-
FC(F)(F)C1=CC=CC(C(N2N=CN=C2)(C3=CC=CC=C3)C4=CC=CC=C4)=C1,31251-03-3,-,876,fluotrimazole,A171,10850781,-,-,-8.4,log(mol/L),8.4,-log(M),Train,,-,,-,,,,-
ClC1=CC(Cl)=C(Cl)C=C1C2=CC(Cl)=C(Cl)C=C2Cl,35065-27-1,-,877,"2,2',4,4'5,5'-pcb",A171,10850781,-,-,-8.56,log(mol/L),8.56,-log(M),Train,,-,,-,,,,-
ClC1=C(C=C(C(=C1C2=C(C(=CC=C2)Cl)Cl)Cl)Cl)Cl,52704-70-8,-,878,"2,2',3,3',5,6-PCB",A171,10850781,-,-,-8.6,log(mol/L),8.6,-log(M),Train,,-,,-,,,,-
ClC1=CC(Cl)=C(C2=C(C=C(C=C2Cl)Cl)Cl)C(Cl)=C1,33979-03-2,-,879,"2,2',4,4',6,6'-PCB",A171,10850781,-,-,-8.71,log(mol/L),8.71,-log(M),Train,,-,,-,,,,-
C1=2C=CC=C3C=CC=C(C=4C5=C(C=CC=C15)C=CC4)C23,198-55-0,-,880,perylene,A171,10850781,-,-,-8.8,log(mol/L),8.8,-log(M),Train,,-,,-,,,,-
ClC1=C(C2=CC(Cl)=CC=C2Cl)C(Cl)=C(Cl)C(Cl)=C1Cl,52712-05-7,-,881,"2,2',3,4,5,5',6-PCB",A171,10850781,-,-,-8.94,log(mol/L),8.94,-log(M),Train,,-,,-,,,,-
ClC1=C(Cl)C=C(Cl)C(Cl)=C1C2=C(Cl)C(Cl)=CC(Cl)=C2Cl,2136-99-4,-,882,"2,2',3,3',5,5',6,6'-PCB",A171,10850781,-,-,-9.15,log(mol/L),9.15,-log(M),Train,,-,,-,,,,-
ClC1=C(Cl)C(Cl)=C(Cl)C(C2=CC(Cl)=C(Cl)C(Cl)=C2Cl)=C1,35694-08-7,-,883,"2,2',3,3',4,4',5,5'-PCB",A171,10850781,-,-,-9.16,log(mol/L),9.16,-log(M),Train,,-,,-,,,,-
ClC1=C(C(Cl)=C(C2=C(C(Cl)=C(C(Cl)=C2Cl)Cl)Cl)C(Cl)=C1Cl)Cl,2051-24-3,-,884,"2,2',3,3',4,4',5,5',6,6'-PCB",A171,10850781,-,-,-11.62,log(mol/L),11.62,-log(M),Train,,-,,-,,,,-
CNC(N)=O,598-50-5,-,885,n-methylurea,A171,10850781,-,-,1.13,log(mol/L),-1.13,-log(M),Test 1,,-,,-,,,,-
O=C1CCCO1,96-48-0,-,886,gamma-butyrolactone,A171,10850781,-,-,1.07,log(mol/L),-1.07,-log(M),Test 1,,-,,-,,,,-
O=C1CCCN1,616-45-5,-,887,pyrrolidone,A171,10850781,-,-,1.07,log(mol/L),-1.07,-log(M),Test 1,,-,,-,,,,-
C1COCCN1,110-91-8,-,888,morpholine,A171,10850781,-,-,1.06,log(mol/L),-1.06,-log(M),Test 1,,-,,-,,,,-
OC1COCC1,453-20-3,-,889,3-hydroxytetrahydrofuran,A171,10850781,-,-,1.05,log(mol/L),-1.05,-log(M),Test 1,,-,,-,,,,-
CN1C(CCC1)=O,872-50-4,-,890,n-methylpyrrolidone,A171,10850781,-,-,1.0,log(mol/L),-1.0,-log(M),Test 1,,-,,-,,,,-
OCC1=CC=CN=C1,100-55-0,-,891,3-pyridinemethanol,A171,10850781,-,-,0.96,log(mol/L),-0.96,-log(M),Test 1,,-,,-,,,,-
O=C(N)N,57-13-6,-,892,Urea,A171,10850781,-,-,0.96,log(mol/L),-0.96,-log(M),Test 1,,-,,-,,,,-
C=CC(N)=O,79-06-1,-,893,acrylamide,A171,10850781,-,-,0.96,log(mol/L),-0.96,-log(M),Test 1,,-,,-,,,,-
O=C(N(C)C)N(C)C,632-22-4,-,894,tetramethylurea,A171,10850781,-,-,0.94,log(mol/L),-0.94,-log(M),Test 1,,-,,-,,,,-
CN(C)C,75-50-3,-,895,trimethylamine,A171,10850781,-,-,0.84,log(mol/L),-0.84,-log(M),Test 1,,-,,-,,,,-
CN1C(C2=CC=CN=C2)CCC1,54-11-5,-,896,Nicotine,A171,10850781,-,-,0.79,log(mol/L),-0.79,-log(M),Test 1,,-,,-,,,,-
OC(C(O)C(O)C=O)C(O)CO,50-99-7,-,897,glucose,A171,10850781,-,,0.74,log(mol/L),-0.74,-log(M),Test 1,,-,,-,,,,-
OCC(O)C(CO)O,149-32-6,-,898,erythritol,A171,10850781,-,-,0.7,log(mol/L),-0.7,-log(M),Test 1,,-,,-,,,,-
C(C)(=O)OC,79-20-9,-,899,Methyl acetate,A171,10850781,-,-,0.52,log(mol/L),-0.52,-log(M),Test 1,,-,,-,,,,-
OC(C(O)=O)(CC(O)=O)CC(O)=O,77-92-9,-,900,citric acid,A171,10850781,-,-,0.51,log(mol/L),-0.51,-log(M),Test 1,,-,,-,,,,-
O=P(OCC)(OCC)OCC,78-40-0,-,901,triethyl phosphate,A171,10850781,-,-,0.43,log(mol/L),-0.43,-log(M),Test 1,,-,,-,,,,-
CC(CC)O,78-92-2,-,902,2-butanol,A171,10850781,-,-,0.43,log(mol/L),-0.43,-log(M),Test 1,,-,,-,,,,-
O=C(O)C(O)=O,144-62-7,-,903,oxalic acid,A171,10850781,-,-,0.38,log(mol/L),-0.38,-log(M),Test 1,,-,,-,,,,-
CC1=CC(C)=CN=C1,591-22-0,-,904,"3,5-dimethylpyridine",A171,10850781,-,-,0.38,log(mol/L),-0.38,-log(M),Test 1,,-,,-,,,,-
CC1=CC=NC=C1C,583-58-4,-,905,"3,4-dimethylpyridine",A171,10850781,-,-,0.36,log(mol/L),-0.36,-log(M),Test 1,,-,,-,,,,-
NC(N)=S,62-56-6,-,906,thiourea,A171,10850781,-,-,0.32,log(mol/L),-0.32,-log(M),Test 1,,-,,-,,,,-
FC(F)(F)C(O)C,374-01-6,-,907,"1,1,1-trifluoro-2-propanol",A171,10850781,-,-,0.3,log(mol/L),-0.3,-log(M),Test 1,,-,,-,,,,-
CC1=CN=C2N=CN=CC2=N1,-,-,908,7-methylpteridine,A171,10850781,-,-,0.06,log(mol/L),-0.06,-log(M),Test 1,,-,,-,,,,-
CC(C(O)=O)=C,79-41-4,-,909,methacrylic acid,A171,10850781,-,-,0.01,log(mol/L),-0.01,-log(M),Test 1,,-,,-,,,,-
CCCCO,71-36-3,-,910,1-Butanol,A171,10850781,-,-,0.0,log(mol/L),0.0,-log(M),Test 1,,-,,-,,,,-
NC(CCl)=O,79-07-2,-,911,chloroacetamide,A171,10850781,-,-,-0.02,log(mol/L),0.02,-log(M),Test 1,,-,,-,,,,-
C(C)(=O)OCC,141-78-6,-,912,Ethyl acetate,A171,10850781,-,-,-0.04,log(mol/L),0.04,-log(M),Test 1,,-,,-,,,,-
COC(C)C,598-53-8,-,913,methyl isopropyl ether,A171,10850781,-,-,-0.06,log(mol/L),0.06,-log(M),Test 1,,-,,-,,,,-
OC(CCl)CCl,96-23-1,-,914,"1,3-dichloro-2-propanol",A171,10850781,-,-,-0.11,log(mol/L),0.11,-log(M),Test 1,,-,,-,,,,-
O=C(OC)CC,554-12-1,-,915,methyl propionate,A171,10850781,-,-,-0.14,log(mol/L),0.14,-log(M),Test 1,,-,,-,,,,-
OC1=CC=C(O)C=C1,123-31-9,-,916,"1,4-benzenediol",A171,10850781,-,-,-0.17,log(mol/L),0.17,-log(M),Test 1,,-,,-,,,,-
OC(C(Cl)(Cl)Cl)P(OC)(OC)=O,52-68-6,-,917,trichlorfon,A171,10850781,-,-,-0.22,log(mol/L),0.22,-log(M),Test 1,,-,,-,,,,-
CC(C)(C)OC,1634-04-4,-,918,Methyl t-butyl ether,A171,10850781,-,-,-0.24,log(mol/L),0.24,-log(M),Test 1,,-,,-,,,,-
NC(OCC1=CC=CC=C1)=O,621-84-1,-,919,o-benzyl carbamate,A171,10850781,-,-,-0.35,log(mol/L),0.35,-log(M),Test 1,,-,,-,,,,-
NC1=NC=CS1,96-50-4,-,920,2-aminothiazole,A171,10850781,-,-,-0.36,log(mol/L),0.36,-log(M),Test 1,,-,,-,,,,-
O=C1NC(CN1)=O,461-72-3,-,921,hydantoin,A171,10850781,-,-,-0.4,log(mol/L),0.4,-log(M),Test 1,,-,,-,,,,-
O=C1NC(=O)NC1=O,120-89-8,-,922,parabanic acid,A171,10850781,-,-,-0.4,log(mol/L),0.4,-log(M),Test 1,,-,,-,,,,-
CC(C)(C)CO,75-84-3,-,923,"2,2-dimethyl-1-propanol",A171,10850781,-,-,-0.4,log(mol/L),0.4,-log(M),Test 1,,-,,-,,,,-
OC(C1=CC=C(N)C=C1)=O,150-13-0,-,924,4-Aminobenzoic acid,A171,10850781,-,-,-0.4,log(mol/L),0.4,-log(M),Test 1,,-,,-,,,,-
NC1=CC=CC=C1,62-53-3,-,925,aniline,A171,10850781,-,-,-0.41,log(mol/L),0.41,-log(M),Test 1,,-,,-,,,,-
CC(C)(O)C(C)C,594-60-5,-,926,"2,3-dimethyl-2-butanol",A171,10850781,-,-,-0.41,log(mol/L),0.41,-log(M),Test 1,,-,,-,,,,-
CCCCOCCO,111-76-2,-,927,2-butoxyethanol,A171,10850781,-,-,-0.42,log(mol/L),0.42,-log(M),Test 1,,-,,-,,,,-
CC(OCC)OCC,105-57-7,-,928,"1,1-diethoxyethane",A171,10850781,-,-,-0.43,log(mol/L),0.43,-log(M),Test 1,,-,,-,,,,-
OC(CCI)=O,141-76-4,-,929,beta-iodopropionic acid,A171,10850781,-,-,-0.43,log(mol/L),0.43,-log(M),Test 1,,-,,-,,,,-
CCCNCCC,142-84-7,-,930,dipropylamine,A171,10850781,-,-,-0.46,log(mol/L),0.46,-log(M),Test 1,,-,,-,,,,-
CC(CO)CC,137-32-6,-,931,2-methyl-1-butanol,A171,10850781,-,-,-0.47,log(mol/L),0.47,-log(M),Test 1,,-,,-,,,,-
O=C(C1=CC=CO1)O,88-14-2,-,932,2-furoic acid,A171,10850781,-,-,-0.48,log(mol/L),0.48,-log(M),Test 1,,-,,-,,,,-
CC(C)(O)CCC,590-36-3,-,933,2-methyl-2-pentanol,A171,10850781,-,-,-0.49,log(mol/L),0.49,-log(M),Test 1,,-,,-,,,,-
CC(C)CCO,123-51-3,-,934,isopentanol,A171,10850781,-,-,-0.52,log(mol/L),0.52,-log(M),Test 1,,-,,-,,,,-
C(C)(=O)OC(C)C,108-21-4,-,935,Isopropyl acetate,A171,10850781,-,-,-0.55,log(mol/L),0.55,-log(M),Test 1,,-,,-,,,,-
CCOC(C)C,625-54-7,-,936,ethyl isopropyl ether,A171,10850781,-,-,-0.55,log(mol/L),0.55,-log(M),Test 1,,-,,-,,,,-
CCS,75-08-1,-,937,ethanethiol,A171,10850781,-,-,-0.6,log(mol/L),0.6,-log(M),Test 1,,-,,-,,,,-
CCCCCO,71-41-0,-,938,1-Pentanol,A171,10850781,-,-,-0.6,log(mol/L),0.6,-log(M),Test 1,,-,,-,,,,-
CC(C)N(=O)=O,79-46-9,-,939,2-nitropropane,A171,10850781,-,-,-0.62,log(mol/L),0.62,-log(M),Test 1,,-,,-,,,,-
CN1N(C2=CC=CC=C2)C(C(N)=C1C)=O,83-07-8,-,940,Ampyrone,A171,10850781,-,-,-0.62,log(mol/L),0.62,-log(M),Test 1,,-,,-,,,,-
OC1=CC=CC=C1C,95-48-7,-,941,o-cresol,A171,10850781,-,-,-0.62,log(mol/L),0.62,-log(M),Test 1,,-,,-,,,,-
S=C1NCCN1,96-45-7,-,942,ethylenethiourea,A171,10850781,-,-,-0.71,log(mol/L),0.71,-log(M),Test 1,,-,,-,,,,-
OCCC1=CC=CC=C1,60-12-8,-,943,2-phenylethanol,A171,10850781,-,-,-0.74,log(mol/L),0.74,-log(M),Test 1,,-,,-,,,,-
O=N(=O)CCC,108-03-2,-,944,1-nitropropane,A171,10850781,-,-,-0.8,log(mol/L),0.8,-log(M),Test 1,,-,,-,,,,-
CC(C)CC(O)C,108-11-2,-,945,4-methyl-2-pentanol,A171,10850781,-,-,-0.8,log(mol/L),0.8,-log(M),Test 1,,-,,-,,,,-
CC(CCCC)=O,591-78-6,-,946,2-Hexanone,A171,10850781,-,-,-0.8,log(mol/L),0.8,-log(M),Test 1,,-,,-,,,,-
O=C(O)C(CC)CC,88-09-5,-,947,2-ethylbutyric acid,A171,10850781,-,-,-0.81,log(mol/L),0.81,-log(M),Test 1,,-,,-,,,,-
OC(CCCCC(O)=O)=O,124-04-9,-,948,adipic acid,A171,10850781,-,-,-0.82,log(mol/L),0.82,-log(M),Test 1,,-,,-,,,,-
O=C1CNC(CN1)=O,106-57-0,-,949,"2,5-piperazinedione",A171,10850781,-,-,-0.83,log(mol/L),0.83,-log(M),Test 1,,-,,-,,,,-
CN(C(OC1=CC(CC(C)(C1)C)=O)=O)C,122-15-6,-,950,dimetan,A171,10850781,-,-,-0.85,log(mol/L),0.85,-log(M),Test 1,,-,,-,,,,-
CC1=C(N)C=CC=C1,95-53-4,-,951,2-methylaniline,A171,10850781,-,-,-0.85,log(mol/L),0.85,-log(M),Test 1,,-,,-,,,,-
CC(C)C(O)(C)CC,595-41-5,-,952,"2,3-dimethyl-3-pentanol",A171,10850781,-,-,-0.85,log(mol/L),0.85,-log(M),Test 1,,-,,-,,,,-
CC(O)(C)C(C)CC,4911-70-0,-,953,"2,3-dimethyl-2-pentanol",A171,10850781,-,-,-0.89,log(mol/L),0.89,-log(M),Test 1,,-,,-,,,,-
CC(O)CCCC,626-93-7,-,954,2-hexanol,A171,10850781,-,-,-0.89,log(mol/L),0.89,-log(M),Test 1,,-,,-,,,,-
NC(C1=CN=CC=N1)=O,98-96-4,-,955,2-pyrazinecarboxamide,A171,10850781,-,-,-0.91,log(mol/L),0.91,-log(M),Test 1,,-,,-,,,,-
OC(C(CO)C1=CC=CC=C1)=O,552-63-6,-,956,dl-tropic acid,A171,10850781,-,-,-0.93,log(mol/L),0.93,-log(M),Test 1,,-,,-,,,,-
CC1CCCCC1=O,583-60-8,-,957,2-methylcyclohexanone,A171,10850781,-,-,-0.94,log(mol/L),0.94,-log(M),Test 1,,-,,-,,,,-
NC(NCC1=CC=CC=C1)=O,538-32-9,-,958,benzylurea,A171,10850781,-,-,-0.95,log(mol/L),0.95,-log(M),Test 1,,-,,-,,,,-
CN(C1=CC=CC=C1)C(C)=O,579-10-2,-,959,n-methylacetanilide,A171,10850781,-,-,-0.95,log(mol/L),0.95,-log(M),Test 1,,-,,-,,,,-
NC(N(N=O)CC)=O,759-73-9,-,960,1-nitroso-1-ethylurea,A171,10850781,-,-,-0.96,log(mol/L),0.96,-log(M),Test 1,,-,,-,,,,-
N#CC1=CC=CC=C1,100-47-0,-,961,benzonitrile,A171,10850781,-,-,-1.0,log(mol/L),1.0,-log(M),Test 1,,-,,-,,,,-
OC1=CC=CC(N(=O)=O)=C1,554-84-7,-,962,3-nitrophenol,A171,10850781,-,-,-1.01,log(mol/L),1.01,-log(M),Test 1,,-,,-,,,,-
CCC(C)(C)CO,1185-33-7,-,963,"2,2-dimethyl-1-butanol",A171,10850781,-,-,-1.04,log(mol/L),1.04,-log(M),Test 1,,-,,-,,,,-
ClCCCl,107-06-2,-,964,"1,2-dichloroethane",A171,10850781,-,-,-1.06,log(mol/L),1.06,-log(M),Test 1,,-,,-,,,,-
CC1(CC(C)=CC(=O)C1)C,78-59-1,-,965,isophorone,A171,10850781,-,-,-1.06,log(mol/L),1.06,-log(M),Test 1,,-,,-,,,,-
OC1=CC=CC=C1Cl,95-57-8,-,966,2-chlorophenol,A171,10850781,-,-,-1.06,log(mol/L),1.06,-log(M),Test 1,,-,,-,,,,-
CCCCCC(O)=O,142-62-1,-,967,caproic acid,A171,10850781,-,-,-1.06,log(mol/L),1.06,-log(M),Test 1,,-,,-,,,,-
C(CCC)CCN,111-26-2,-,968,hexylamine,A171,10850781,-,-,-1.1,log(mol/L),1.1,-log(M),Test 1,,-,,-,,,,-
CC(CO)CCC,105-30-6,-,969,2-methyl-1-pentanol,A171,10850781,-,-,-1.11,log(mol/L),1.11,-log(M),Test 1,,-,,-,,,,-
ClCCOCCCl,111-44-4,-,970,bis-(2-chloroethyl) ether,A171,10850781,-,-,-1.12,log(mol/L),1.12,-log(M),Test 1,,-,,-,,,,-
OC(CC)C(C)(C)C,3970-62-5,-,971,"2,2-dimethyl-3-pentanol",A171,10850781,-,-,-1.15,log(mol/L),1.15,-log(M),Test 1,,-,,-,,,,-
O=C(C1=CC(O)=C(O)C(O)=C1)O,149-91-7,-,972,gallic acid,A171,10850781,-,-,-1.16,log(mol/L),1.16,-log(M),Test 1,,-,,-,,,,-
C(Br)Br,74-95-3,-,973,dibromomethane,A171,10850781,-,-,-1.17,log(mol/L),1.17,-log(M),Test 1,,-,,-,,,,-
CC1=CC(O)=C2C=CC=CC2=N1,607-67-0,-,974,4-hydroxy-2-methylquinoline,A171,10850781,-,-,-1.2,log(mol/L),1.2,-log(M),Test 1,,-,,-,,,,-
NC1=CC=C(C)C=C1,106-49-0,-,975,4-methylaniline,A171,10850781,-,-,-1.21,log(mol/L),1.21,-log(M),Test 1,,-,,-,,,,-
OC1=NC=NC2=C1N=CN2C3C(O)C(O)C(CO)O3,58-63-9,-,976,inosine,A171,10850781,-,-,-1.23,log(mol/L),1.23,-log(M),Test 1,,-,,-,,,,-
O=C(C1=CC(O)=C(C(=C1)O)O)OC,99-24-1,-,977,methyl gallate,A171,10850781,-,-,-1.24,log(mol/L),1.24,-log(M),Test 1,,-,,-,,,,-
OCCN1C(N(=O)=O)=CN=C1C,443-48-1,-,978,Metronidazole,A171,10850781,-,-,-1.26,log(mol/L),1.26,-log(M),Test 1,,-,,-,,,,-
O=C1NC(C)=CC(N1)=O,626-48-2,-,979,6-methyluracil,A171,10850781,-,-,-1.26,log(mol/L),1.26,-log(M),Test 1,,-,,-,,,,-
CC1=CC(N)=NC(C)=N1,461-98-3,-,980,"2,6-dimethyl-4-pyrimidinamine",A171,10850781,-,-,-1.28,log(mol/L),1.28,-log(M),Test 1,,-,,-,,,,-
CNC1=CC=CC=C1,100-61-8,-,981,N-Methylaniline,A171,10850781,-,-,-1.28,log(mol/L),1.28,-log(M),Test 1,,-,,-,,,,-
CCCC(CCC)=O,123-19-3,-,982,4-heptanone,A171,10850781,-,-,-1.3,log(mol/L),1.3,-log(M),Test 1,,-,,-,,,,-
ClC=CCl,156-59-2,-,983,"1,2-dichloroethylene",A171,10850781,-,-,-1.3,log(mol/L),1.3,-log(M),Test 1,,-,,-,,,,-
CC1=C(O)C(C)=CC=C1,576-26-1,-,984,"2,6-xylenol",A171,10850781,-,-,-1.31,log(mol/L),1.31,-log(M),Test 1,,-,,-,,,,-
BrC=CBr,590-12-5,-,985,"1,2-dibromoethylene",A171,10850781,-,-,-1.32,log(mol/L),1.32,-log(M),Test 1,,-,,-,,,,-
CCCOC(C)C,627-08-7,-,986,propyl isopropyl ether,A171,10850781,-,-,-1.34,log(mol/L),1.34,-log(M),Test 1,,-,,-,,,,-
CNC(NCCSCC1=C(C)NC=N1)=NC#N,51481-61-9,-,987,Cimetidine,A171,10850781,-,-,-1.35,log(mol/L),1.35,-log(M),Test 1,,-,,-,,,,-
C=CCCl,107-05-1,-,988,3-chloropropylene,A171,10850781,-,-,-1.36,log(mol/L),1.36,-log(M),Test 1,,-,,-,,,,-
NC1=CC=C(C=C1)S(N)(=O)=O,63-74-1,-,989,sulfanilamide,A171,10850781,-,-,-1.36,log(mol/L),1.36,-log(M),Test 1,,-,,-,,,,-
O=C1OC(C2=CC=CC=C12)=O,85-44-9,-,990,phthalic anhydride,A171,10850781,-,-,-1.39,log(mol/L),1.39,-log(M),Test 1,,-,,-,,,,-
CC1=CC(O)=CC=C1C,95-65-8,-,991,"3,4-xylenol",A171,10850781,-,-,-1.41,log(mol/L),1.41,-log(M),Test 1,,-,,-,,,,-
CC(Cl)C,75-29-6,-,992,2-chloropropane,A171,10850781,-,-,-1.41,log(mol/L),1.41,-log(M),Test 1,,-,,-,,,,-
OC1=CC=C(C(O)=O)C=C1,99-96-7,-,993,p-hydroxybenzoic acid,A171,10850781,-,-,-1.41,log(mol/L),1.41,-log(M),Test 1,,-,,-,,,,-
CC1(C)C(C(O)=O)CCC1(C)C(O)=O,124-83-4,-,994,d-camphoric acid,A171,10850781,-,-,-1.42,log(mol/L),1.42,-log(M),Test 1,,-,,-,,,,-
OC12C(CC3C(O)(C4=C(C(O)=C3C1=O)C(O)=CC=C4)C)C(N(C)C)C(=O)C(=C2O)C(=O)NCN5CCCC5,751-97-3,-,995,rolitetracycline,A171,10850781,-,,-1.42,log(mol/L),1.42,-log(M),Test 1,,-,,-,,,,-
CC(CC(C)C)=O,108-10-1,-,996,4-Methyl-2-pentanone,A171,10850781,-,-,-1.42,log(mol/L),1.42,-log(M),Test 1,,-,,-,,,,-
O=C(C1CCCCC1)O,98-89-5,-,997,cyclohexanecarboxylic acid,A171,10850781,-,-,-1.45,log(mol/L),1.45,-log(M),Test 1,,-,,-,,,,-
S=C(NCC)NCC,105-55-5,-,998,"1,3-diethylthiourea",A171,10850781,-,-,-1.46,log(mol/L),1.46,-log(M),Test 1,,-,,-,,,,-
NC(OCCCCC)=O,638-42-6,-,999,n-amyl carbamate,A171,10850781,-,-,-1.47,log(mol/L),1.47,-log(M),Test 1,,-,,-,,,,-
FC(F)(C1=CC(N)=CC=C1)F,98-16-8,-,1000,3-trifluoromethylaniline,A171,10850781,-,-,-1.47,log(mol/L),1.47,-log(M),Test 1,,-,,-,,,,-
CCC(O)CCCC,589-82-2,-,1001,3-heptanol,A171,10850781,-,-,-1.47,log(mol/L),1.47,-log(M),Test 1,,-,,-,,,,-
O=C1NC=CC(N1)=O,66-22-8,-,1002,Uracil,A171,10850781,-,-,-1.48,log(mol/L),1.48,-log(M),Test 1,,-,,-,,,,-
C=CCBr,106-95-6,-,1003,3-bromopropylene,A171,10850781,-,-,-1.5,log(mol/L),1.5,-log(M),Test 1,,-,,-,,,,-
C=12C=CC=CC1SC=N2,95-16-9,-,1004,benzothiazole,A171,10850781,-,-,-1.5,log(mol/L),1.5,-log(M),Test 1,,-,,-,,,,-
CCCC1NCCCC1,458-88-8,-,1005,coniine,A171,10850781,-,-,-1.5,log(mol/L),1.5,-log(M),Test 1,,-,,-,,,,-
ClC1=CC=CC=C1N,95-51-2,-,1006,2-chloroaniline,A171,10850781,-,-,-1.52,log(mol/L),1.52,-log(M),Test 1,,-,,-,,,,-
O=C1C(C)=CNC(N1)=O,65-71-4,-,1007,5-methyluracil,A171,10850781,-,-,-1.52,log(mol/L),1.52,-log(M),Test 1,,-,,-,,,,-
BrC(Cl)Cl,75-27-4,-,1008,bromodichloromethane,A171,10850781,-,-,-1.54,log(mol/L),1.54,-log(M),Test 1,,-,,-,,,,-
NS(=O)(C1=CC=CC=C1)=O,98-10-2,-,1009,benzenesulfonamide,A171,10850781,-,-,-1.56,log(mol/L),1.56,-log(M),Test 1,,-,,-,,,,-
CC(Br)C,75-26-3,-,1010,2-bromopropane,A171,10850781,-,-,-1.59,log(mol/L),1.59,-log(M),Test 1,,-,,-,,,,-
NC(NC1C(NC(N1)=O)=O)=O,97-59-6,-,1011,allantoin,A171,10850781,-,-,-1.6,log(mol/L),1.6,-log(M),Test 1,,-,,-,,,,-
CCI,75-03-6,-,1012,iodoethane,A171,10850781,-,-,-1.6,log(mol/L),1.6,-log(M),Test 1,,-,,-,,,,-
CCC(C)(O)CCCC,5582-82-1,-,1013,3-methyl-3-heptanol,A171,10850781,-,-,-1.6,log(mol/L),1.6,-log(M),Test 1,,-,,-,,,,-
OC(C(N)CC1=CC=C(O)C(O)=C1)=O,59-92-7,-,1014,levodopa,A171,10850781,-,-,-1.6,log(mol/L),1.6,-log(M),Test 1,,-,,-,,,,-