SMILES,CASRN,EXTERNALID,N,NAME,ARTICLEID,PUBMEDID,PAGE,TABLE,Solubility_log(mol/L),UNIT {Water solubility},"Water solubility {measured, converted}",UNIT {Water solubility}.1,Dataset,Temperature,UNIT {Temperature},Ionic strength,UNIT {Ionic strength},comment (chemical),source,pH,UNIT {pH}
CCCCCCCCCO,143-08-8,-,526,1-nonanol,A64,11749573,-,-,-3.01,log(mol/L),3.01,-log(M),Train,,-,,-,,,,-
O=C(NC1C2C3CCCC3C(C1)C2)N(C)C,28805-78-9,-,527,isonoruron,A64,11749573,-,-,-3.01,log(mol/L),3.01,-log(M),Train,,-,,-,,,,-
C#CCCCCC,628-71-7,-,528,1-heptyne,A64,11749573,-,-,-3.01,log(mol/L),3.01,-log(M),Train,,-,,-,,,,-
CCCCC1=C(O)N=C(NCC)N=C1C,23947-60-6,-,529,Ethirimol,A64,11749573,-,-,-3.02,log(mol/L),3.02,-log(M),Train,,-,,-,,,,-
CCN(C1=CC=CC=C1)CC,91-66-7,-,530,"n,n-diethylaniline",A64,11749573,-,-,-3.03,log(mol/L),3.03,-log(M),Train,,-,,-,,,,-
O=C(NO)C(C1=CC=C(CC(C)C)C=C1)C,53648-05-8,-,531,ibuproxam,A64,11749573,-,-,-3.04,log(mol/L),3.04,-log(M),Train,,-,,-,,,,-
O=S1(C2=C(C=C(Cl)C(S(N)(=O)=O)=C2)N=CN1)=O,58-94-6,-,533,Chlorothiazide,A64,11749573,-,-,-3.05,log(mol/L),3.05,-log(M),Train,,-,,-,,,,-
OC(C=1C=2C=CC=CC2N=CC1)C3N4CCC(C(C4)C=C)C3,485-71-2,-,536,cinchonidine,A64,11749573,-,-,-3.07,log(mol/L),3.07,-log(M),Train,,-,,-,,,,-
BrCCCCC,110-53-2,-,537,1-bromopentane,A64,11749573,-,-,-3.07,log(mol/L),3.07,-log(M),Train,,-,,-,,,,-
OC1=CC(O)=CC=C1C2=C(O)C(C3=C(O)C=C(O)C=C3O2)=O,480-16-0,-,538,morin,A64,11749573,-,-,-3.08,log(mol/L),3.08,-log(M),Train,,-,,-,,,,-
OC(C1N2CC(C(C1)CC2)C=C)C=3C=4C(N=CC3)=CC=CC4,118-10-5,-,539,cinchonine,A64,11749573,-,,-3.09,log(mol/L),3.09,-log(M),Train,,-,,-,,,,-
CC12CCC3C(C)C(OC3C2=C(C(C=C1)=O)C)=O,481-06-1,-,540,santonin,A64,11749573,-,-,-3.09,log(mol/L),3.09,-log(M),Train,,-,,-,,,,-
CCC1=CC=C(C)C=C1,622-96-8,-,541,1-ethyl-4-methylbenzene,A64,11749573,-,-,-3.11,log(mol/L),3.11,-log(M),Train,,-,,-,,,,-
O=C1CCC2(C)C(CCC3C2C(CC4(C)C3CCC4(O)C(CO)=O)=O)=C1,53-06-5,-,542,Cortisone,A64,11749573,-,-,-3.11,log(mol/L),3.11,-log(M),Train,,-,,-,,,,-
ClCCCCCC,544-10-5,-,543,1-chlorohexane,A64,11749573,-,-,-3.12,log(mol/L),3.12,-log(M),Train,,-,,-,,,,-
OC1=CC=CC2=C1C(C3=C(O)C4(C(C(C(N)=O)=C(O)C(N(C)C)C4CC3C2(O)C)=O)O)=O,60-54-8,-,544,tetracycline,A64,11749573,-,-,-3.12,log(mol/L),3.12,-log(M),Train,,-,,-,,,,-
CCCCN(CCCC)CCCC,102-82-9,-,545,tributylamine,A64,11749573,-,-,-3.12,log(mol/L),3.12,-log(M),Train,,-,,-,,,,-
ClC(F)(F)C(F)(F)Cl,76-14-2,-,546,"1,2-dichlorotetrafluoroethane",A64,11749573,-,-,-3.12,log(mol/L),3.12,-log(M),Train,,-,,-,,,,-
O=C(C1=CC=CC=C1C(OCC=C)=O)OCC=C,131-17-9,-,547,diallyl phthalate,A64,11749573,-,-,-3.13,log(mol/L),3.13,-log(M),Train,,-,,-,,,,-
CC=CC1=CC=C(OC)C=C1,104-46-1,-,548,anethole,A64,11749573,-,-,-3.13,log(mol/L),3.13,-log(M),Train,,-,,-,,,,-
FC1=CC=C(I)C=C1,352-34-1,-,549,1-fluoro-4-iodobenzene,A64,11749573,-,-,-3.13,log(mol/L),3.13,-log(M),Train,,-,,-,,,,-
OC12C(C(C(O)=C(C(N)=O)C1=O)N(C)C)C(C3C(=C2O)C(=O)C4=C(C3(C)O)C=CC=C4O)O,79-57-2,-,550,oxytetracycline,A64,11749573,-,-,-3.14,log(mol/L),3.14,-log(M),Train,,-,,-,,,,-
BrC(Br)(Br)Br,558-13-4,-,551,tetrabromomethane,A64,11749573,-,-,-3.14,log(mol/L),3.14,-log(M),Train,,-,,-,,,,-
COC1=C2C(C3C4=CC=C(OC)C(OC)=C4C(O3)=O)N(C)CCC2=CC5=C1OCO5,128-62-1,-,552,noscapine,A64,11749573,-,-,-3.14,log(mol/L),3.14,-log(M),Train,,-,,-,,,,-
O=C(C=1SCCOC1C)NC2=CC=CC=C2,5234-68-4,-,553,carboxin,A64,11749573,-,-,-3.14,log(mol/L),3.14,-log(M),Train,,-,,-,,,,-
ClC1=NC(NC(C)(C)C#N)=NC(NCC)=N1,21725-46-2,-,554,cyanazine,A64,11749573,-,-,-3.15,log(mol/L),3.15,-log(M),Train,,-,,-,,,,-
O=C(NC1=CC=CC=C1)NC2=CC=CC=C2,102-07-8,-,555,carbanilide,A64,11749573,-,-,-3.15,log(mol/L),3.15,-log(M),Train,,-,,-,,,,-
O=C(C1=CC=CC=C1O)OC2=CC=CC=C2,118-55-8,-,556,phenyl salicylate,A64,11749573,-,-,-3.15,log(mol/L),3.15,-log(M),Train,,-,,-,,,,-
CCN(CCNC(C1=C(OC)C=C(N)C(Cl)=C1)=O)CC,364-62-5,-,557,Metoclopramide,A64,11749573,-,-,-3.18,log(mol/L),3.18,-log(M),Train,,-,,-,,,,-
SC1=NC=2C=CC=CC2S1,149-30-4,-,558,2-mercaptobenzothiazole,A64,11749573,-,-,-3.18,log(mol/L),3.18,-log(M),Train,,-,,-,,,,-
CCCCC,109-66-0,-,559,n-pentane,A64,11749573,-,-,-3.18,log(mol/L),3.18,-log(M),Train,,-,,-,,,,-
CC1=C(C)C=CC=C1C,526-73-8,-,560,"1,2,3-trimethylbenzene",A64,11749573,-,-,-3.2,log(mol/L),3.2,-log(M),Train,,-,,-,,,,-
BrC1=CC(Cl)=CC=C1,108-37-2,-,561,1-bromo-3-chlorobenzene,A64,11749573,-,-,-3.21,log(mol/L),3.21,-log(M),Train,,-,,-,,,,-
CCC1=CC=CC=C1C,611-14-3,-,562,1-ethyl-2-methylbenzene,A64,11749573,-,-,-3.21,log(mol/L),3.21,-log(M),Train,,-,,-,,,,-
O=C(O)C(C1=CC=CC=C1)C2=CC=CC=C2,117-34-0,-,563,diphenylacetic acid,A64,11749573,-,-,-3.22,log(mol/L),3.22,-log(M),Train,,-,,-,,,,-
IC=CI,590-27-2,-,564,"1,2-diiodoethylene",A64,11749573,-,-,-3.22,log(mol/L),3.22,-log(M),Train,,-,,-,,,,-
C=CCCCC,592-41-6,-,565,1-hexene,A64,11749573,-,-,-3.23,log(mol/L),3.23,-log(M),Train,,-,,-,,,,-
ClC1=CC(N)=CC=C1Cl,95-76-1,-,566,"3,4-dichloroaniline",A64,11749573,-,-,-3.24,log(mol/L),3.24,-log(M),Train,,-,,-,,,,-
CC(NC1=C(C)C=C(C)C(NS(=O)(C(F)(F)F)=O)=C1)=O,53780-34-0,-,567,Mefluidide,A64,11749573,-,-,-3.24,log(mol/L),3.24,-log(M),Train,,-,,-,,,,-
CC(NC1=CC=C(C=C1)I)=O,622-50-4,-,568,4-iodoacetanilide,A64,11749573,-,-,-3.25,log(mol/L),3.25,-log(M),Train,,-,,-,,,,-
O=C(N(C1=C(CC)C=CC=C1CC)COC)CCl,15972-60-8,-,569,alachlor,A64,11749573,-,-,-3.26,log(mol/L),3.26,-log(M),Train,,-,,-,,,,-
O=C(C1=CC=C(C=C1)N)OCCCCC,13110-37-7,-,570,pentyl-4-aminobenzoate,A64,11749573,-,-,-3.26,log(mol/L),3.26,-log(M),Train,,-,,-,,,,-
COC(C1=C(Cl)C(N)=CC(Cl)=C1)=O,7286-84-2,-,571,chloramben methyl ester,A64,11749573,-,-,-3.26,log(mol/L),3.26,-log(M),Train,,-,,-,,,,-
O=C(OCCNCCCCC)C1=CC=C(C=C1)N,2188-67-2,-,572,naepaine,A64,11749573,-,-,-3.27,log(mol/L),3.27,-log(M),Train,,-,,-,,,,-
O=C(C1=CC(I)=CC=C1)O,618-51-9,-,573,m-iodobenzoic acid,A64,11749573,-,-,-3.27,log(mol/L),3.27,-log(M),Train,,-,,-,,,,-
CC1=CCCCC1,591-49-1,-,574,1-methylcyclohexene,A64,11749573,-,-,-3.27,log(mol/L),3.27,-log(M),Train,,-,,-,,,,-
CC(C)C1=CC=CC=C1,98-82-8,-,575,isopropylbenzene,A64,11749573,-,-,-3.27,log(mol/L),3.27,-log(M),Train,,-,,-,,,,-
COC1=NN=C(NS(=O)(C2=CC=C(C=C2)N)=O)C=C1,80-35-3,-,576,sulfamethoxypyridazine,A64,11749573,-,-,-3.28,log(mol/L),3.28,-log(M),Train,,-,,-,,,,-
O=C(NC)OC=1C=2C=CC=CC2C=CC1,63-25-2,-,577,carbaryl,A64,11749573,-,-,-3.28,log(mol/L),3.28,-log(M),Train,,-,,-,,,,-
CC1CCCC1,96-37-7,-,578,Methylcyclopentane,A64,11749573,-,-,-3.3,log(mol/L),3.3,-log(M),Train,,-,,-,,,,-
CC1=C(C(NC2=CC=CC=C2)=O)C=CO1,24691-80-3,-,579,fenfuram,A64,11749573,-,-,-3.3,log(mol/L),3.3,-log(M),Train,,-,,-,,,,-
O=C(C1=CC(I)=CC(=C1O)I)O,133-91-5,-,580,"3,5-diiodosalicylic acid",A64,11749573,-,-,-3.31,log(mol/L),3.31,-log(M),Train,,-,,-,,,,-
O=C(C1=CC=C(Cl)C=C1)O,74-11-3,-,581,p-chlorobenzoic acid,A64,11749573,-,-,-3.31,log(mol/L),3.31,-log(M),Train,,-,,-,,,,-
CC(CCCCCCCC)=O,693-54-9,-,582,2-decanone,A64,11749573,-,-,-3.31,log(mol/L),3.31,-log(M),Train,,-,,-,,,,-
CC1=CC(C)=CC=C1C,95-63-6,-,583,"1,2,4-trimethylbenzene",A64,11749573,-,-,-3.31,log(mol/L),3.31,-log(M),Train,,-,,-,,,,-
O=C1CC2OCC=C3C4CC5C6(C(N1C7=C6C=CC=C7)C24)CCN5C3,57-24-9,-,584,strychnine,A64,11749573,-,-,-3.32,log(mol/L),3.32,-log(M),Train,,-,,-,,,,-
BrC1=CC(C#N)=CC(Br)=C1O,1689-84-5,-,585,bromoxynil,A64,11749573,-,-,-3.33,log(mol/L),3.33,-log(M),Train,,-,,-,,,,-
CCOP(OCC)(N1C(C2=CC=CC=C2C1=O)=O)=S,5131-24-8,-,586,ditalimfos,A64,11749573,-,-,-3.35,log(mol/L),3.35,-log(M),Train,,-,,-,,,,-
C=12C=3C=CC=NC3C=CC1C=CC=C2,85-02-9,-,587,benzo(f)quinoline,A64,11749573,-,-,-3.36,log(mol/L),3.36,-log(M),Train,,-,,-,,,,-
S=C1NC(C(C(N1)=O)(C(C)CCC)CC)=O,76-75-5,-,588,thiopental,A64,11749573,-,-,-3.36,log(mol/L),3.36,-log(M),Train,,-,,-,,,,-
OC1CCC2(C)C3CC(O)C4(C)C(C(C)CCC(O)=O)CCC4C3C(O)CC2C1,81-25-4,-,589,cholic acid,A64,11749573,-,-,-3.37,log(mol/L),3.37,-log(M),Train,,-,,-,,,,-
CCN1C=C(C(O)=O)C(C=2C1=NC(C)=CC2)=O,389-08-2,-,590,nalidixic acid,A64,11749573,-,-,-3.37,log(mol/L),3.37,-log(M),Train,,-,,-,,,,-
OC(C1N2CC(C(C1)CC2)C=C)C3=C4C(=NC=C3)C=CC(OC)=C4,56-54-2,-,591,quinidine,A64,11749573,-,,-3.37,log(mol/L),3.37,-log(M),Train,,-,,-,,,,-
CCCC1=CC=CC=C1,103-65-1,-,592,n-Propylbenzene,A64,11749573,-,-,-3.37,log(mol/L),3.37,-log(M),Train,,-,,-,,,,-
OC(C1=CC=C(F)C=C1)(C2=C(F)C=CC=C2)CN3C=NC=N3,76674-21-0,-,593,flutriafol,A64,11749573,-,-,-3.37,log(mol/L),3.37,-log(M),Train,,-,,-,,,,-
CCCCCCCC(OC)=O,111-11-5,-,594,methyl caprylate,A64,11749573,-,-,-3.39,log(mol/L),3.39,-log(M),Train,,-,,-,,,,-
S=C(SCC(Cl)=C)N(CC)CC,95-06-7,-,595,sulfallate,A64,11749573,-,-,-3.39,log(mol/L),3.39,-log(M),Train,,-,,-,,,,-
O=C(NS(C1=CC=C(C)C=C1)(=O)=O)NCCCC,64-77-7,-,596,tolbutamide,A64,11749573,-,-,-3.39,log(mol/L),3.39,-log(M),Train,,-,,-,,,,-
CN(CCC=C1C2=C(C=CC=C2)OCC3=C1C=CC=C3)C,1668-19-5,-,597,Doxepin,A64,11749573,-,-,-3.4,log(mol/L),3.4,-log(M),Train,,-,,-,,,,-
O=C(O)CCCCCCCCC=C,112-38-9,-,598,undecylenic acid,A64,11749573,-,-,-3.4,log(mol/L),3.4,-log(M),Train,,-,,-,,,,-
CC1=CC(C)=CC(C)=C1,108-67-8,-,599,"1,3,5-trimethylbenzene",A64,11749573,-,-,-3.4,log(mol/L),3.4,-log(M),Train,,-,,-,,,,-
O=C1CCC2(C)C(CCC3C2(F)C(O)CC4(C)C3CCC4(O)C(CO)=O)=C1,127-31-1,-,601,fludrocortisone,A64,11749573,-,-,-3.43,log(mol/L),3.43,-log(M),Train,,-,,-,,,,-
O=C(NC1=CC(C(F)(F)F)=CC=C1)N(C)C,2164-17-2,-,602,fluometuron,A64,11749573,-,-,-3.43,log(mol/L),3.43,-log(M),Train,,-,,-,,,,-
CCCCCCCCCC(O)=O,334-48-5,-,603,caprinic acid,A64,11749573,-,-,-3.44,log(mol/L),3.44,-log(M),Train,,-,,-,,,,-
S=C1NC(C(C(N1)=O)(C(C)CCC)CC=C)=O,77-27-0,-,604,thiamylal,A64,11749573,-,-,-3.46,log(mol/L),3.46,-log(M),Train,,-,,-,,,,-
CC12C(CCC3C1C(CC4(C3CCC4=O)C)=O)=CC(=O)CC2,382-45-6,-,605,adrenosterone,A64,11749573,-,-,-3.48,log(mol/L),3.48,-log(M),Train,,-,,-,,,,-
O=C(C1=CC=CC=C1)OCCCC,136-60-7,-,606,butyl benzoate,A64,11749573,-,-,-3.48,log(mol/L),3.48,-log(M),Train,,-,,-,,,,-
OC1=CC=C(C2=CC=CC=C2)C=C1,92-69-3,-,607,p-phenylphenol,A64,11749573,-,-,-3.48,log(mol/L),3.48,-log(M),Train,,-,,-,,,,-
BrC1=CC=CC=C1Br,583-53-9,-,608,"1,2-dibromobenzene",A64,11749573,-,-,-3.5,log(mol/L),3.5,-log(M),Train,,-,,-,,,,-
O=S(NC1=NC=CC=N1)(C2=CC=C(N)C=C2)=O,68-35-9,-,609,sulfadiazine,A64,11749573,-,-,-3.51,log(mol/L),3.51,-log(M),Train,,-,,-,,,,-
C1(NC2=CC=CC=C2)=CC=CC=C1,122-39-4,-,610,diphenylamine,A64,11749573,-,-,-3.51,log(mol/L),3.51,-log(M),Train,,-,,-,,,,-
C1CCCCCC1,291-64-5,-,611,cycloheptane,A64,11749573,-,-,-3.52,log(mol/L),3.52,-log(M),Train,,-,,-,,,,-
O=C(NC1=CC(Cl)=C(Cl)C=C1)N(C)OC,330-55-2,-,612,linuron,A64,11749573,-,-,-3.52,log(mol/L),3.52,-log(M),Train,,-,,-,,,,-
CC1=CC(Br)=CC=C1,591-17-3,-,613,m-bromotoluene,A64,11749573,-,-,-3.52,log(mol/L),3.52,-log(M),Train,,-,,-,,,,-
CC1=CC=CC=C1Cl,95-49-8,-,614,o-chlorotoluene,A64,11749573,-,-,-3.52,log(mol/L),3.52,-log(M),Train,,-,,-,,,,-
O=N(C=1C=2C=CC=CC2C=CC1)=O,86-57-7,-,615,1-nitronaphthalene,A64,11749573,-,-,-3.54,log(mol/L),3.54,-log(M),Train,,-,,-,,,,-
CC(C)(C)CC,75-83-2,-,616,"2,2-Dimethylbutane",A64,11749573,-,-,-3.55,log(mol/L),3.55,-log(M),Train,,-,,-,,,,-
O=C(N(CC)CC)C(OC1=CC=CC2=C1C=CC=C2)C,15299-99-7,-,617,napropamide,A64,11749573,-,-,-3.57,log(mol/L),3.57,-log(M),Train,,-,,-,,,,-
O=S(N(C(C)=O)C1=C(C)C(C)=NO1)(C2=CC=C(C=C2)N)=O,80-74-0,-,618,acetyl sulfisoxazole,A64,11749573,-,-,-3.59,log(mol/L),3.59,-log(M),Train,,-,,-,,,,-
O=S1(C2=CC(S(N)(=O)=O)=C(C(F)(F)F)C=C2NC(CC3=CC=CC=C3)N1)=O,73-48-3,-,619,bendroflumethiazide,A64,11749573,-,-,-3.59,log(mol/L),3.59,-log(M),Train,,-,,-,,,,-
ClC1=C(Cl)C=C(Cl)C=C1,120-82-1,-,620,"1,2,4-trichlorobenzene",A64,11749573,-,-,-3.59,log(mol/L),3.59,-log(M),Train,,-,,-,,,,-
O=C(C1=CC=CC=C1O)NC2=CC=CC=C2,87-17-2,-,621,salicylanilide,A64,11749573,-,-,-3.59,log(mol/L),3.59,-log(M),Train,,-,,-,,,,-
C1=CC=CC2=C1C=CC=C2,91-20-3,-,622,Naphthalene,A64,11749573,-,-,-3.6,log(mol/L),3.6,-log(M),Train,,-,,-,,,,-
ClC1=CC=CC=C1C=2C3=CC(Cl)=CC=C3NC(=O)C(N2)O,846-49-1,-,623,Lorazepam,A64,11749573,-,-,-3.6,log(mol/L),3.6,-log(M),Train,,-,,-,,,,-
OC1=C(I)C=C(C#N)C=C1I,1689-83-4,-,624,Ioxynil,A64,11749573,-,-,-3.61,log(mol/L),3.61,-log(M),Train,,-,,-,,,,-
O=C(C(C)(C)C)C(N1C=NC=N1)OC2=CC=C(Cl)C=C2,43121-43-3,-,625,triadimefon,A64,11749573,-,-,-3.61,log(mol/L),3.61,-log(M),Train,,-,,-,,,,-
CCCCCCCCCCO,112-30-1,-,626,1-decanol,A64,11749573,-,-,-3.63,log(mol/L),3.63,-log(M),Train,,-,,-,,,,-
BrC1=CC=C(Cl)C=C1,106-39-8,-,627,1-bromo-4-chlorobenzene,A64,11749573,-,-,-3.63,log(mol/L),3.63,-log(M),Train,,-,,-,,,,-
O=C1C=CC2(C)C(CCC3C2(F)C(O)CC4(C)C3CC(C)C4(O)C(CO)=O)=C1,50-02-2,-,628,Dexamethasone,A64,11749573,-,-,-3.64,log(mol/L),3.64,-log(M),Train,,-,,-,,,,-
CC(CCC(O)=O)C1CCC2C3C(O)CC4CC(O)CCC4(C)C3CCC12C,474-25-9,-,629,chenodeoxycholic acid,A64,11749573,-,-,-3.64,log(mol/L),3.64,-log(M),Train,,-,,-,,,,-
CNCCCN1C2=C(CCC3=C1C=CC=C3)C=CC=C2,50-47-5,-,630,Desipramine,A64,11749573,-,-,-3.66,log(mol/L),3.66,-log(M),Train,,-,,-,,,,-
C#CCCCCCC,629-05-0,-,631,1-octyne,A64,11749573,-,-,-3.66,log(mol/L),3.66,-log(M),Train,,-,,-,,,,-
ClC(Cl)(Cl)C(Cl)(Cl)Cl,67-72-1,-,632,hexachloroethane,A64,11749573,-,-,-3.67,log(mol/L),3.67,-log(M),Train,,-,,-,,,,-
ClC1=C(C=CC(Cl)=C1)OCCCC(O)=O,94-82-6,-,633,"2,4-db",A64,11749573,-,-,-3.67,log(mol/L),3.67,-log(M),Train,,-,,-,,,,-
CC1=CC2=C(N=C3C(NC(N=C3N2CC(O)C(O)C(O)CO)=O)=O)C=C1C,83-88-5,-,634,riboflavin,A64,11749573,-,-,-3.68,log(mol/L),3.68,-log(M),Train,,-,,-,,,,-
O=S(NC(NN1CCCCCC1)=O)(C2=CC=C(C)C=C2)=O,1156-19-0,-,635,tolazamide,A64,11749573,-,-,-3.68,log(mol/L),3.68,-log(M),Train,,-,,-,,,,-
O=C1C=CC2(C)C(CCC3C2(F)C(O)CC4(C)C3CC(O)C4(O)C(CO)=O)=C1,124-94-7,-,636,triamcinolone,A64,11749573,-,-,-3.69,log(mol/L),3.69,-log(M),Train,,-,,-,,,,-
CC12C(CCC3C4CCC(=O)C4(CCC31)C)=CC(CC2)=O,63-05-8,-,637,androstenedione,A64,11749573,-,-,-3.69,log(mol/L),3.69,-log(M),Train,,-,,-,,,,-
O=C(C1=CC=CC=C1)C2=CC=CC(C(C(O)=O)C)=C2,22071-15-4,-,638,Ketoprofen,A64,11749573,-,-,-3.7,log(mol/L),3.7,-log(M),Train,,-,,-,,,,-
OCCN(C1=CC=CC=C1)CCO,120-07-0,-,131,n-phenyldiethanolamine,A64,11749573,-,-,-0.73,log(mol/L),0.73,-log(M),Train,,-,,-,,,,-
O=S(NC1=CN=CC=N1)(C2=CC=C(C=C2)N)=O,116-44-9,-,639,sulfapyrazine,A64,11749573,-,-,-3.7,log(mol/L),3.7,-log(M),Train,,-,,-,,,,-
O=C(CC)N(C1=CC=CC=C1)C2(COC)CCN(CCC3=CC=CS3)CC2,56030-54-7,-,640,sufentanil,A64,11749573,-,-,-3.71,log(mol/L),3.71,-log(M),Train,,-,,-,,,,-
O=C1C(CCCC)C(N(N1C2=CC=C(O)C=C2)C3=CC=CC=C3)=O,129-20-4,-,641,oxyphenbutazone,A64,11749573,-,-,-3.73,log(mol/L),3.73,-log(M),Train,,-,,-,,,,-
CC(C)CCC,107-83-5,-,642,2-methylpentane,A64,11749573,-,-,-3.74,log(mol/L),3.74,-log(M),Train,,-,,-,,,,-
CCC1=CC=C(CC)C=C1,105-05-5,-,643,"1,4-diethylbenzene",A64,11749573,-,-,-3.75,log(mol/L),3.75,-log(M),Train,,-,,-,,,,-
O=NN(C1=CC=CC=C1)C2=CC=CC=C2,86-30-6,-,644,diphenylnitrosamine,A64,11749573,-,-,-3.75,log(mol/L),3.75,-log(M),Train,,-,,-,,,,-
O=C(OC)C(Cl)CC1=CC=C(Cl)C=C1,14437-17-3,-,645,chlorfenprop-methyl,A64,11749573,-,-,-3.77,log(mol/L),3.77,-log(M),Train,,-,,-,,,,-
CC1=CC=2C=CC=CC2C=C1,91-57-6,-,646,2-methylnaphthalene,A64,11749573,-,-,-3.77,log(mol/L),3.77,-log(M),Train,,-,,-,,,,-
CCOC1=CC=C2N=C(S(N)(=O)=O)SC2=C1,452-35-7,-,650,ethoxyzolamide,A64,11749573,-,-,-3.81,log(mol/L),3.81,-log(M),Train,,-,,-,,,,-
NC1=NC=C(CC2=CC(OC)=C(OC)C(OC)=C2)C(N)=N1,738-70-5,-,507,Trimethoprim,A64,11749573,-,-,-2.86,log(mol/L),2.86,-log(M),Train,,-,,-,,,,-
O=C(N(C)C)NC1=CC(OC(NC(C)(C)C)=O)=CC=C1,4849-32-5,-,518,karbutilate,A64,11749573,-,-,-2.93,log(mol/L),2.93,-log(M),Train,,-,,-,,,,-
CCCCI,542-69-8,-,520,1-iodobutane,A64,11749573,-,-,-2.96,log(mol/L),2.96,-log(M),Train,,-,,-,,,,-
O=C(CC)NC1=CC(Cl)=C(Cl)C=C1,709-98-8,-,524,propanil,A64,11749573,-,-,-3.0,log(mol/L),3.0,-log(M),Train,,-,,-,,,,-
CC(C)NC1=NC(NCC)=NC(SC)=N1,834-12-8,-,532,ametryn,A64,11749573,-,-,-3.04,log(mol/L),3.04,-log(M),Train,,-,,-,,,,-
O=S(C1=CC=CC=C1)(NC(NCCCC)=O)=O,3149-00-6,-,534,phenbutamide,A64,11749573,-,-,-3.05,log(mol/L),3.05,-log(M),Train,,-,,-,,,,-
ClC1=C(Cl)C=CC=C1,95-50-1,-,535,"1,2-Dichlorobenzene",A64,11749573,-,-,-3.05,log(mol/L),3.05,-log(M),Train,,-,,-,,,,-
CCOC1OC2=CC=C(C=C2C1(C)C)OS(C)(=O)=O,26225-79-6,-,600,ethofumesate,A64,11749573,-,-,-3.42,log(mol/L),3.42,-log(M),Train,,-,,-,,,,-
CC1NC2=CC(Cl)=C(S(N)(=O)=O)C=C2C(N1C3=CC=CC=C3C)=O,17560-51-9,-,647,Metolazone,A64,11749573,-,-,-3.78,log(mol/L),3.78,-log(M),Train,,-,,-,,,,-
CC1=CC=CC(C)=C1NC(C2=CC(S(N)(=O)=O)=C(C=C2O)Cl)=O,14293-44-8,-,648,Xipamide,A64,11749573,-,-,-3.79,log(mol/L),3.79,-log(M),Train,,-,,-,,,,-
O=C1CN=C(C2=CC=CC=C2)C3=CC(N(=O)=O)=CC=C3N1C,2011-67-8,-,649,nimetazepam,A64,11749573,-,-,-3.8,log(mol/L),3.8,-log(M),Train,,-,,-,,,,-
ClC1=CC=CC=C1N,95-51-2,-,1000,2-chloroaniline,A64,11749573,-,-,-1.52,log(mol/L),1.52,-log(M),Test 1,,-,,-,,,,-
O=C1C(C)=CNC(N1)=O,65-71-4,-,1001,5-methyluracil,A64,11749573,-,-,-1.52,log(mol/L),1.52,-log(M),Test 1,,-,,-,,,,-
BrC(Cl)Cl,75-27-4,-,1002,bromodichloromethane,A64,11749573,-,-,-1.54,log(mol/L),1.54,-log(M),Test 1,,-,,-,,,,-
NS(=O)(C1=CC=CC=C1)=O,98-10-2,-,1003,benzenesulfonamide,A64,11749573,-,-,-1.56,log(mol/L),1.56,-log(M),Test 1,,-,,-,,,,-
CC(Br)C,75-26-3,-,1004,2-bromopropane,A64,11749573,-,-,-1.59,log(mol/L),1.59,-log(M),Test 1,,-,,-,,,,-
NC(NC1C(NC(N1)=O)=O)=O,97-59-6,-,1005,allantoin,A64,11749573,-,-,-1.6,log(mol/L),1.6,-log(M),Test 1,,-,,-,,,,-
CCI,75-03-6,-,1006,iodoethane,A64,11749573,-,-,-1.6,log(mol/L),1.6,-log(M),Test 1,,-,,-,,,,-
CCC(C)(O)CCCC,5582-82-1,-,1007,3-methyl-3-heptanol,A64,11749573,-,-,-1.6,log(mol/L),1.6,-log(M),Test 1,,-,,-,,,,-
OC(C(N)CC1=CC=C(O)C(O)=C1)=O,59-92-7,-,1008,levodopa,A64,11749573,-,-,-1.6,log(mol/L),1.6,-log(M),Test 1,,-,,-,,,,-
CC(C1=CC=C(N)C=C1)=O,99-92-3,-,1009,p-aminoacetophenone,A64,11749573,-,-,-1.61,log(mol/L),1.61,-log(M),Test 1,,-,,-,,,,-
CC(CC(C(C)(C)C)=O)=O,-,-,1010,"5,5-dimethyl-2,4-hexadione",A64,11749573,-,-,-1.63,log(mol/L),1.63,-log(M),Test 1,,-,,-,,,,-
C#CCCC,627-19-0,-,1011,1-pentyne,A64,11749573,-,-,-1.64,log(mol/L),1.64,-log(M),Test 1,,-,,-,,,,-
O=C(OC)NS(C1=CC=C(N)C=C1)(=O)=O,3337-71-1,-,1012,asulam,A64,11749573,-,-,-1.66,log(mol/L),1.66,-log(M),Test 1,,-,,-,,,,-
O=C(OC)C1=CC=CC=C1C(OC)=O,131-11-3,-,1013,dimethyl phthalate,A64,11749573,-,-,-1.66,log(mol/L),1.66,-log(M),Test 1,,-,,-,,,,-
O=C(C1=CC=CC=C1)NCC(O)=O,495-69-2,-,1014,hippuric acid,A64,11749573,-,-,-1.68,log(mol/L),1.68,-log(M),Test 1,,-,,-,,,,-
NCC(CC)CCCC,104-75-6,-,1015,2-ethylhexylamine,A64,11749573,-,-,-1.71,log(mol/L),1.71,-log(M),Test 1,,-,,-,,,,-
O=C(NCC)C(OC(NC1=CC=CC=C1)=O)C,16118-49-3,-,1016,carbetamide,A64,11749573,-,-,-1.83,log(mol/L),1.83,-log(M),Test 1,,-,,-,,,,-
C12OC(C(Cl)(Cl)Cl)OC1C(C(O2)C(O)CO)O,15879-93-3,-,1017,chloralose,A64,11749573,-,-,-1.84,log(mol/L),1.84,-log(M),Test 1,,-,,-,,,,-
CCCCCCCN,111-68-2,-,1018,heptylamine,A64,11749573,-,-,-1.85,log(mol/L),1.85,-log(M),Test 1,,-,,-,,,,-
O=C(OC)C1=CC=CC=C1,93-58-3,-,1019,methyl benzoate,A64,11749573,-,-,-1.85,log(mol/L),1.85,-log(M),Test 1,,-,,-,,,,-
CC12CC(C(C)(C)C1=O)CC2,4695-62-9,-,1020,d-fenchone,A64,11749573,-,-,-1.85,log(mol/L),1.85,-log(M),Test 1,,-,,-,,,,-
ClCCCBr,109-70-6,-,1021,1-bromo-3-chloropropane,A64,11749573,-,-,-1.85,log(mol/L),1.85,-log(M),Test 1,,-,,-,,,,-
C=CC=C,106-99-0,-,1022,"1,3-Butadiene",A64,11749573,-,-,-1.87,log(mol/L),1.87,-log(M),Test 1,,-,,-,,,,-
O=C1C=CC2=CC=CC=C2O1,91-64-5,-,1023,Coumarin,A64,11749573,-,-,-1.89,log(mol/L),1.89,-log(M),Test 1,,-,,-,,,,-
O=C(C1=CC=CC=C1Cl)O,118-91-2,-,1024,o-chlorobenzoic acid,A64,11749573,-,-,-1.89,log(mol/L),1.89,-log(M),Test 1,,-,,-,,,,-
O=N(C1=CC=CC=C1NC(C)=O)=O,552-32-9,-,1025,2-nitroacetanilide,A64,11749573,-,-,-1.91,log(mol/L),1.91,-log(M),Test 1,,-,,-,,,,-
ClC(CCl)CCl,96-18-4,-,1026,"1,2,3-trichloropropane",A64,11749573,-,-,-1.92,log(mol/L),1.92,-log(M),Test 1,,-,,-,,,,-
NC1=CC=CC=2C=CC=CC21,134-32-7,-,1027,1-naphthylamine,A64,11749573,-,-,-1.92,log(mol/L),1.92,-log(M),Test 1,,-,,-,,,,-
CC1=NC=2C=CC=CC2C(C)=C1,1198-37-4,-,1028,"2,4-dimethylquinoline",A64,11749573,-,-,-1.94,log(mol/L),1.94,-log(M),Test 1,,-,,-,,,,-
NC1=NC=NC2=C1C=CN2C3OC(CO)C(C3O)O,69-33-0,-,1029,tubercidin,A64,11749573,-,-,-1.95,log(mol/L),1.95,-log(M),Test 1,,-,,-,,,,-
CC1=NC=2C=CC=CC2N1,615-15-6,-,1030,2-methylbenzimidazole,A64,11749573,-,-,-1.96,log(mol/L),1.96,-log(M),Test 1,,-,,-,,,,-