SMILES,CASRN,EXTERNALID,N,NAME,ARTICLEID,PUBMEDID,PAGE,TABLE,Solubility_log(mol/L),UNIT {Water solubility},"Water solubility {measured, converted}",UNIT {Water solubility}.1,Dataset,Temperature,UNIT {Temperature},Ionic strength,UNIT {Ionic strength},comment (chemical),source,pH,UNIT {pH}
CCOC(=O)CC,-,-,663,ethyl propionate,A170,15154768,-,-,-0.66,log(mol/L),0.66,-log(M),,,-,,-,,,,-
CCCOCC,-,-,664,ethyl propyl ether,A170,15154768,-,-,-0.66,log(mol/L),0.66,-log(M),,,-,,-,,,,-
CCOC=C,-,-,665,ethyl vinyl ether,A170,15154768,-,-,-0.85,log(mol/L),0.85,-log(M),,,-,,-,,,,-
CCC1=CC=CC=C1,-,-,666,ethylbenzene,A170,15154768,-,-,-2.77,log(mol/L),2.77,-log(M),,,-,,-,,,,-
CCC1CCCCC1,-,-,667,ethylcyclohexane,A170,15154768,-,-,-4.25,log(mol/L),4.25,-log(M),,,-,,-,,,,-
C=C,-,-,668,Ethylene,A170,15154768,-,-,-0.4,log(mol/L),0.4,-log(M),,,-,,-,,,,-
CCOC(=O)C1=CC=C(N)C=C1,-,-,669,Ethyl-p-aminobenzoate,A170,15154768,-,-,-2.1,log(mol/L),2.1,-log(M),,,-,,-,,,,-
CCOC(=O)C1=CC=C(O)C=C1,-,-,670,ethyl-p-hydroxybenzoate,A170,15154768,-,-,-2.35,log(mol/L),2.35,-log(M),,,-,,-,,,,-
C#C,-,-,671,Ethyne,A170,15154768,-,-,0.29,log(mol/L),-0.29,-log(M),,,-,,-,,,,-
CCOC1=CC=C(C=C1)C(C)(C)COCC2=CC=CC(OC3=CC=CC=C3)=C2,-,-,672,Etofenprox,A170,15154768,-,-,-8.6,log(mol/L),8.6,-log(M),,,-,,-,,,,-
CCOC(=O)C1=CN=CN1C(C)C2=CC=CC=C2,-,-,673,Etomidate,A170,15154768,-,-,-4.735,log(mol/L),4.735,-log(M),,,-,,-,,,,-
COC1=CC(=CC(OC)=C1O)C2C3C(COC3=O)C(OC4OC5COC(C)OC5C(O)C4O)C6=CC=7OCOC7C=C26,-,-,674,"Etoposide (148-167,25mg/ml)",A170,15154768,-,-,-3.571,log(mol/L),3.571,-log(M),,,-,,-,,,,-
CC12CCC(CC1)C(C)(C)O2,-,-,675,eucalyptol,A170,15154768,-,-,-1.64,log(mol/L),1.64,-log(M),,,-,,-,,,,-
COC1=CC(CC=C)=CC=C1O,-,-,676,eugenol,A170,15154768,-,-,-1.56,log(mol/L),1.56,-log(M),,,-,,-,,,,-
OC(C1=CC=C(Cl)C=C1)(C2=CN=CN=C2)C3=CC=CC=C3Cl,-,-,677,fenarimol,A170,15154768,-,-,-4.38,log(mol/L),4.38,-log(M),,,-,,-,,,,-
CC=1OC=CC1C(=O)NC2=CC=CC=C2,-,-,678,fenfuram,A170,15154768,-,-,-3.3,log(mol/L),3.3,-log(M),,,-,,-,,,,-
COP(=S)(OC)OC1=CC=C(N(=O)=O)C(C)=C1,-,-,679,fenitrothion,A170,15154768,-,-,-4.04,log(mol/L),4.04,-log(M),,,-,,-,,,,-
CN(C)C(=O)SCCCCOC1=CC=CC=C1,-,-,680,Fenothiocarb,A170,15154768,-,-,-3.927,log(mol/L),3.927,-log(M),,,-,,-,,,,-
CCOC(=O)NCCOC1=CC=C(OC2=CC=CC=C2)C=C1,-,-,681,Fenoxycarb,A170,15154768,-,-,-4.7,log(mol/L),4.7,-log(M),,,-,,-,,,,-
CC1(C)C(C(=O)OC(C#N)C2=CC=CC(OC3=CC=CC=C3)=C2)C1(C)C,-,-,682,Fenpropathrin,A170,15154768,-,-,-6.025,log(mol/L),6.025,-log(M),,,-,,-,,,,-
CCOP(=S)(OCC)OC1=CC=C(C=C1)S(C)=O,-,-,683,fensulfothion,A170,15154768,-,-,-2.3,log(mol/L),2.3,-log(M),,,-,,-,,,,-
COP(=S)(OC)OC1=CC=C(SC)C(C)=C1,-,-,684,fenthion,A170,15154768,-,-,-4.57,log(mol/L),4.57,-log(M),,,-,,-,,,,-
CN(C)C(=O)NC1=CC=CC=C1,-,-,685,fenuron,A170,15154768,-,-,-1.6,log(mol/L),1.6,-log(M),,,-,,-,,,,-
OC(CN1C=NC=N1)(CN2C=NC=N2)C3=CC=C(F)C=C3F,-,-,686,Fluconazole,A170,15154768,-,-,-1.8,log(mol/L),1.8,-log(M),,,-,,-,,,,-
CC(C)C(C(=O)OC(C#N)C1=CC=CC(OC2=CC=CC=C2)=C1)C3=CC=C(OC(F)F)C=C3,-,-,687,Flucythrinate,A170,15154768,-,-,-6.876,log(mol/L),6.876,-log(M),,,-,,-,,,,-
NC1=NC(=O)NC=C1F,-,-,688,Flucytosine,A170,15154768,-,-,-0.972,log(mol/L),0.972,-log(M),,,-,,-,,,,-
CC12CC(O)C3(F)C(CCC4=CC(=O)CCC43C)C1CCC2(O)C(=O)CO,-,-,689,fludrocortisone,A170,15154768,-,-,-3.43,log(mol/L),3.43,-log(M),,,-,,-,,,,-
CC1CC2C3CC(F)C4=CC(=O)C=CC4(C)C3(F)C(O)CC2(C)C1(O)C(=O)CO,-,-,690,Flumethasone,A170,15154768,-,-,-5.613,log(mol/L),5.613,-log(M),,,-,,-,,,,-
CCN(CC1=C(F)C=CC=C1Cl)C2=C(C=C(C=C2N(=O)=O)C(F)(F)F)N(=O)=O,-,-,691,Flumetralin,A170,15154768,-,-,-6.78,log(mol/L),6.78,-log(M),,,-,,-,,,,-
CN(C)C(=O)NC1=CC=CC(=C1)C(F)(F)F,-,-,692,fluometuron,A170,15154768,-,-,-3.43,log(mol/L),3.43,-log(M),,,-,,-,,,,-
C1=CC=C2C(=C1)C=3C=CC=C4C=CC=C2C34,-,-,693,Fluoranthene,A170,15154768,-,-,-6.0,log(mol/L),6.0,-log(M),,,-,,-,,,,-
C1C2=CC=CC=C2C3=CC=CC=C31,-,-,694,Fluorene,A170,15154768,-,-,-5.0,log(mol/L),5.0,-log(M),,,-,,-,,,,-
FC1=CC=CC=C1,-,-,695,fluorobenzene,A170,15154768,-,-,-1.8,log(mol/L),1.8,-log(M),,,-,,-,,,,-
CC1CC2C3CCC(O)(C(=O)C)C3(C)CC(O)C2(F)C4(C)C=CC(=O)C=C14,-,-,696,Fluoromethalone,A170,15154768,-,-,-4.099,log(mol/L),4.099,-log(M),,,-,,-,,,,-
CN(C)C(=O)NC1=CC=CC(=C1)C(F)(F)F,-,-,697,Fluorometuron,A170,15154768,-,-,-3.32,log(mol/L),3.32,-log(M),,,-,,-,,,,-
CN1C=C(C2=CC=CC=C2)C(=O)C(=C1)C3=CC=CC(=C3)C(F)(F)F,-,-,698,fluridone,A170,15154768,-,-,-4.445,log(mol/L),4.445,-log(M),,,-,,-,,,,-
FC(F)(F)C1=CC=CC(=C1)N2CC(CCl)C(Cl)C2=O,-,-,699,Flurochloridone,A170,15154768,-,-,-4.047,log(mol/L),4.047,-log(M),,,-,,-,,,,-
OC(CN1C=NC=N1)(C2=CC=C(F)C=C2)C3=CC=CC=C3F,-,-,700,flutriafol,A170,15154768,-,-,-3.37,log(mol/L),3.37,-log(M),,,-,,-,,,,-
ClC1=C(NC(C(C)C)C(OC(C2=CC(OC3=CC=CC=C3)=CC=C2)C#N)=O)C=CC(=C1)C(F)(F)F,-,-,701,Fluvalinate,A170,15154768,-,,-8.003,log(mol/L),8.003,-log(M),,,-,,-,,,,-
CNC(=O)OC1=CC=CC(N=CN(C)C)=C1,-,-,702,formetanate,A170,15154768,-,-,-2.34,log(mol/L),2.34,-log(M),,,-,,-,,,,-
COP(=S)(OC)SCC(=O)N(C)C=O,-,-,703,Formothion,A170,15154768,-,-,-1.995,log(mol/L),1.995,-log(M),,,-,,-,,,,-
OCC1OC(O)(CO)C(O)C1O,-,-,704,Fructose,A170,15154768,-,-,0.64,log(mol/L),-0.64,-log(M),,,-,,-,,,,-
C=1C=COC1,-,-,705,Furane,A170,15154768,-,-,-0.82,log(mol/L),0.82,-log(M),,,-,,-,,,,-
O=CC1=CC=CO1,-,-,706,furfural,A170,15154768,-,-,-0.1,log(mol/L),0.1,-log(M),,,-,,-,,,,-
C1=C(O)C2C(=O)C3C=C(O)C=CC3OC2C=C1OC,-,-,707,gentisin,A170,15154768,-,-,-2.943,log(mol/L),2.943,-log(M),,,-,,-,,,,-
OCC(O)COC(=O)C1=CC=CC=C1NC2=CC=NC=3C=C(Cl)C=CC23,-,-,708,Glafenine,A170,15154768,-,-,-4.571,log(mol/L),4.571,-log(M),,,-,,-,,,,-
OCC1OC(O)C(O)C(O)C1O,-,-,709,glucose,A170,15154768,-,-,0.74,log(mol/L),-0.74,-log(M),,,-,,-,,,,-
CCC1(CCC(=O)NC1=O)C2=CC=CC=C2,-,-,710,glutethimide,A170,15154768,-,-,-2.337,log(mol/L),2.337,-log(M),,,-,,-,,,,-
OCC(O)CO,-,-,711,glycerol,A170,15154768,-,-,1.12,log(mol/L),-1.12,-log(M),,,-,,-,,,,-
CC(=O)OCC(COC(=O)C)OC(=O)C,-,-,712,glyceryl triacetate,A170,15154768,-,-,-0.6,log(mol/L),0.6,-log(M),,,-,,-,,,,-
COC1=CC(=O)CC(C)C12OC3=C(Cl)C(OC)=CC(OC)=C3C2=O,-,-,713,Griseofulvin,A170,15154768,-,-,-3.246,log(mol/L),3.246,-log(M),,,-,,-,,,,-
COC1=CC=CC=C1O,-,-,714,guaiacol,A170,15154768,-,,-1.96,log(mol/L),1.96,-log(M),,,-,,-,,,,-
NC1=NC=2NC=NC2C(=O)N1,-,-,715,Guanine,A170,15154768,-,-,-3.583,log(mol/L),3.583,-log(M),,,-,,-,,,,-
FC(F)(F)C(Cl)Br,-,-,716,Halothane,A170,15154768,-,-,-1.71,log(mol/L),1.71,-log(M),,,-,,-,,,,-
C1=CC(O)=C(O)C=2OCC3(O)CC4=CC(=O)C(O)=CC4=C3C21,-,-,717,hematein,A170,15154768,-,-,-2.7,log(mol/L),2.7,-log(M),,,-,,-,,,,-
ClC1C=CC2C1C3(Cl)C(=C(Cl)C2(Cl)C3(Cl)Cl)Cl,-,-,718,heptachlor,A170,15154768,-,-,-6.317,log(mol/L),6.317,-log(M),,,-,,-,,,,-
CCCCCCC,-,-,719,Heptane,A170,15154768,-,-,-4.53,log(mol/L),4.53,-log(M),,,-,,-,,,,-
ClC(=C(Cl)C(=C(Cl)Cl)Cl)Cl,-,-,720,"Hexachloro-1,3-butadiene",A170,15154768,-,-,-4.92,log(mol/L),4.92,-log(M),,,-,,-,,,,-
ClC(Cl)(Cl)C(Cl)(Cl)Cl,-,-,721,hexachloroethane,A170,15154768,-,-,-3.67,log(mol/L),3.67,-log(M),,,-,,-,,,,-
CCCCCCCCCCCCCCCCCCCCCCCCCC,-,-,722,hexacosane,A170,15154768,-,-,-8.334,log(mol/L),8.334,-log(M),,,-,,-,,,,-
CCCCCCCCCCCCCCCC,-,-,723,Hexadecane,A170,15154768,-,-,-8.4,log(mol/L),8.4,-log(M),,,-,,-,,,,-
CC1=C(C)C(C)=C(C)C(C)=C1C,-,-,724,hexamethylbenzene,A170,15154768,-,-,-5.23,log(mol/L),5.23,-log(M),,,-,,-,,,,-
CCCCCC,-,-,725,Hexane,A170,15154768,-,-,-3.84,log(mol/L),3.84,-log(M),,,-,,-,,,,-
CCC(C(CC)C1=CC=C(O)C=C1)C2=CC=C(O)C=C2,-,-,726,hexestrol,A170,15154768,-,-,-4.43,log(mol/L),4.43,-log(M),,,-,,-,,,,-
CCCCCCC1=CC=CC=C1,-,-,727,Hexylbenzene,A170,15154768,-,-,-5.21,log(mol/L),5.21,-log(M),,,-,,-,,,,-
O=C1CNC(=O)N1,-,-,728,hydantoin,A170,15154768,-,-,-0.4,log(mol/L),0.4,-log(M),,,-,,-,,,,-
N(NC1=CC=CC=C1)C2=CC=CC=C2,-,-,729,hydrazobenzene,A170,15154768,-,-,-2.92,log(mol/L),2.92,-log(M),,,-,,-,,,,-
C1=CC=CC=C1C(O)C(O)C2=CC=CC=C2,-,-,730,hydrobenzoin,A170,15154768,-,-,-1.93,log(mol/L),1.93,-log(M),,,-,,-,,,,-
NS(=O)(=O)C1=CC2=C(NCNS2(=O)=O)C=C1Cl,-,-,731,Hydrochlorothiazide,A170,15154768,-,-,-2.63,log(mol/L),2.63,-log(M),,,-,,-,,,,-
CC12CC(O)C3C(CCC4=CC(=O)CCC34C)C1CCC2(O)C(=O)CO,-,-,732,Hydrocortisone,A170,15154768,-,-,-3.09,log(mol/L),3.09,-log(M),,,-,,-,,,,-
CC(=O)OCC(=O)C1(O)CCC2C3CCC4=CC(=O)CCC4(C)C3C(O)CC21C,-,-,733,Hydrocortisone 21-acetate,A170,15154768,-,-,-4.88,log(mol/L),4.88,-log(M),,,-,,-,,,,-
OC1C=CC2C1C3(Cl)C(=C(Cl)C2(Cl)C3(Cl)Cl)Cl,-,-,734,hydroxychlordene,A170,15154768,-,-,-5.46,log(mol/L),5.46,-log(M),,,-,,-,,,,-
CC(=O)C1(O)CCC2C3CCC4=CC(=O)CCC4(C)C3CCC21C,-,-,735,Hydroxyprogesterone-17a,A170,15154768,-,-,-3.817,log(mol/L),3.817,-log(M),,,-,,-,,,,-
O=C1NC=NC=2N=CNC12,-,-,736,hypoxanthine,A170,15154768,-,-,-2.296,log(mol/L),2.296,-log(M),,,-,,-,,,,-
C12=CC=CC=C1CCC2,-,-,737,Indan,A170,15154768,-,-,-3.04,log(mol/L),3.04,-log(M),,,-,,-,,,,-
CC1CC2=CC=CC=C2N1NC(=O)C3=CC=C(Cl)C(=C3)S(N)(=O)=O,-,-,738,Indapamide,A170,15154768,-,-,-3.586,log(mol/L),3.586,-log(M),,,-,,-,,,,-
C1=CC=C2NN=CC2=C1,-,-,739,indazole,A170,15154768,-,-,-2.16,log(mol/L),2.16,-log(M),,,-,,-,,,,-
C1=CC=C2NC=CC2=C1,-,-,740,indole,A170,15154768,-,-,-1.52,log(mol/L),1.52,-log(M),,,-,,-,,,,-
C1=CC=C2NCCC2=C1,-,-,741,indoline,A170,15154768,-,-,-1.04,log(mol/L),1.04,-log(M),,,-,,-,,,,-
OCC1OC(C(O)C1O)N2C=NC=3C(O)=NC=NC23,-,-,742,inosine,A170,15154768,-,-,-1.23,log(mol/L),1.23,-log(M),,,-,,-,,,,-
IC1=CC=CC=C1,-,-,743,iodobenzene,A170,15154768,-,-,-3.01,log(mol/L),3.01,-log(M),,,-,,-,,,,-
CCI,-,-,744,iodoethane,A170,15154768,-,-,-1.6,log(mol/L),1.6,-log(M),,,-,,-,,,,-
COP(=S)(OC)OC1=CC(Cl)=C(I)C=C1Cl,-,-,745,iodofenphos,A170,15154768,-,-,-6.62,log(mol/L),6.62,-log(M),,,-,,-,,,,-
CI,-,-,746,iodomethane,A170,15154768,-,-,-1.0,log(mol/L),1.0,-log(M),,,-,,-,,,,-
OC1=C(I)C=C(C#N)C=C1I,-,-,747,Ioxynil,A170,15154768,-,-,-3.61,log(mol/L),3.61,-log(M),,,-,,-,,,,-
CCN(CC)C1=NC(Cl)=NC(NC(C)C)=N1,-,-,748,Ipazine,A170,15154768,-,-,-3.785,log(mol/L),3.785,-log(M),,,-,,-,,,,-
CCOP(=S)(OCC)OC=1N=C(Cl)N(N1)C(C)C,-,-,749,Isazofos,A170,15154768,-,-,-3.658,log(mol/L),3.658,-log(M),,,-,,-,,,,-
CC(C)COC(=O)C,-,-,750,Isobutyl acetate,A170,15154768,-,-,-1.21,log(mol/L),1.21,-log(M),,,-,,-,,,,-
CC(C)COC=O,-,-,751,isobutyl formate,A170,15154768,-,-,-1.01,log(mol/L),1.01,-log(M),,,-,,-,,,,-
CC(C)CC1=CC=CC=C1,-,-,752,isobutylbenzene,A170,15154768,-,-,-4.12,log(mol/L),4.12,-log(M),,,-,,-,,,,-
C1N(C(=O)NCC(C)C)C(=O)NC1,-,-,753,isocarbamid,A170,15154768,-,-,-2.15,log(mol/L),2.15,-log(M),,,-,,-,,,,-
CC1=CC(=NO1)C(=O)NNCC2=CC=CC=C2,-,-,754,Isocarboxazid,A170,15154768,-,-,-2.461,log(mol/L),2.461,-log(M),,,-,,-,,,,-
CCOP(=S)(NC(C)C)OC1=CC=CC=C1C(=O)OC(C)C,-,-,755,Isofenphos,A170,15154768,-,-,-4.194,log(mol/L),4.194,-log(M),,,-,,-,,,,-
NC1=NC(O)=NC=2N=CNC12,-,-,756,isoguanine,A170,15154768,-,-,-3.401,log(mol/L),3.401,-log(M),,,-,,-,,,,-
C1(C(NN)=O)=CC=NC=C1,-,-,757,Isonazid,A170,15154768,-,-,0.009,log(mol/L),-0.009,-log(M),,,-,,-,,,,-
CC(C)CCOC(=O)C,-,-,758,Isopentyl acetate,A170,15154768,-,-,-1.92,log(mol/L),1.92,-log(M),,,-,,-,,,,-
CC(C)CCOC=O,-,-,759,Isopentyl formate,A170,15154768,-,-,-1.52,log(mol/L),1.52,-log(M),,,-,,-,,,,-
CC1=CC(=O)CC(C)(C)C1,-,-,760,isophorone,A170,15154768,-,-,-1.06,log(mol/L),1.06,-log(M),,,-,,-,,,,-
CNC(=O)OC1=CC=CC=C1C(C)C,-,-,761,Isoprocarb,A170,15154768,-,-,-2.863,log(mol/L),2.863,-log(M),,,-,,-,,,,-
CCCN(CCC)C1=C(C=C(C=C1N(=O)=O)C(C)C)N(=O)=O,-,-,762,Isopropalin,A170,15154768,-,-,-6.49,log(mol/L),6.49,-log(M),,,-,,-,,,,-
CC(C)OC(=O)C,-,-,763,Isopropyl acetate,A170,15154768,-,-,-0.55,log(mol/L),0.55,-log(M),,,-,,-,,,,-
CC(C)OC=O,-,-,764,Isopropyl formate,A170,15154768,-,-,-0.63,log(mol/L),0.63,-log(M),,,-,,-,,,,-
CC(C)C1=CC=CC=C1,-,-,765,isopropylbenzene,A170,15154768,-,-,-3.27,log(mol/L),3.27,-log(M),,,-,,-,,,,-
CC(C)C1=CC=C(NC(N(C)C)=O)C=C1,-,-,766,isoproturon,A170,15154768,-,-,-3.536,log(mol/L),3.536,-log(M),,,-,,-,,,,-
C1=CC=C2C=NC=CC2=C1,-,-,767,isoquinoline,A170,15154768,-,-,-1.45,log(mol/L),1.45,-log(M),,,-,,-,,,,-
CN(C)C(=O)NC1=CC=CC(OC(=O)NC(C)(C)C)=C1,-,-,768,karbutilate,A170,15154768,-,-,-2.93,log(mol/L),2.93,-log(M),,,-,,-,,,,-
CC(CCC1C(N(C2=CC=CC=C2)N(C3=CC=CC=C3)C1=O)=O)=O,-,-,769,kebuzone,A170,15154768,-,-,-3.27,log(mol/L),3.27,-log(M),,,-,,-,,,,-
ClC12C(=O)C3(Cl)C4(Cl)C1(Cl)C5(C(C4(C3(C25Cl)Cl)Cl)(Cl)Cl)Cl,-,-,770,Kepone,A170,15154768,-,-,-5.259,log(mol/L),5.259,-log(M),,,-,,-,,,,-
COC=1C=2OC=CC2C(OC)=C3C(=O)C=C(C)OC13,-,-,771,khellin,A170,15154768,-,-,-3.021,log(mol/L),3.021,-log(M),,,-,,-,,,,-
OCC1OC(OC2C(O)C(O)C(O)OC2CO)C(O)C(O)C1O,-,-,772,Lactose,A170,15154768,-,-,-0.244,log(mol/L),0.244,-log(M),,,-,,-,,,,-
C1OC(O)C(O)C(O)C1O,-,-,773,l-arabinose,A170,15154768,-,-,0.39,log(mol/L),-0.39,-log(M),,,-,,-,,,,-
O=C1NC=2CCCC2C(=O)N1C3CCCCC3,-,-,774,Lenacil,A170,15154768,-,-,-4.594,log(mol/L),4.594,-log(M),,,-,,-,,,,-
CC(C)=CCCC(O)(C)C=C,-,-,775,linalool,A170,15154768,-,-,-1.99,log(mol/L),1.99,-log(M),,,-,,-,,,,-
ClC1C(Cl)C(Cl)C(Cl)C(Cl)C1Cl,-,-,776,lindane,A170,15154768,-,-,-4.64,log(mol/L),4.64,-log(M),,,-,,-,,,,-
CON(C)C(=O)NC1=CC=C(Cl)C(Cl)=C1,-,-,777,linuron,A170,15154768,-,-,-3.592,log(mol/L),3.592,-log(M),,,-,,-,,,,-
OC1N=C(C2=CC=CC=C2Cl)C3=CC(Cl)=CC=C3NC1=O,-,-,778,Lorazepam,A170,15154768,-,-,-3.604,log(mol/L),3.604,-log(M),,,-,,-,,,,-
CCC(C)C(=O)OC1CC(C)C=C2C=CC(C)C(CCC3CC(O)CC(=O)O3)C12,-,-,779,Lovastatin,A170,15154768,-,-,-6.005,log(mol/L),6.005,-log(M),,,-,,-,,,,-
CCOC(=O)CC(SP(=S)(OC)OC)C(=O)OCC,-,-,780,malathion,A170,15154768,-,-,-3.37,log(mol/L),3.37,-log(M),,,-,,-,,,,-
CCOC(=O)CC(=O)OCC,-,-,781,Malonic acid diethylester,A170,15154768,-,-,-0.82,log(mol/L),0.82,-log(M),,,-,,-,,,,-
OCC1OC(OC2C(O)C(O)C(O)OC2CO)C(O)C(O)C1O,-,-,782,Maltose,A170,15154768,-,-,0.358,log(mol/L),-0.358,-log(M),,,-,,-,,,,-
OCC(O)C(O)C(O)C(O)CO,-,-,783,Mannitol,A170,15154768,-,-,0.06,log(mol/L),-0.06,-log(M),,,-,,-,,,,-
NC1=CC=CC(Cl)=C1,-,-,784,m-Chloroaniline,A170,15154768,-,-,-1.37,log(mol/L),1.37,-log(M),,,-,,-,,,,-
ClC1=CC=CC(Br)=C1,-,-,785,m-Chlorobromobenzene,A170,15154768,-,-,-3.21,log(mol/L),3.21,-log(M),,,-,,-,,,,-
ClC1=CC=CC(I)=C1,-,-,786,m-Chloroiodobenzene,A170,15154768,-,-,-3.55,log(mol/L),3.55,-log(M),,,-,,-,,,,-
ClC1=CC=CC(=C1)N(=O)=O,-,-,787,m-Chloronitrobenzene,A170,15154768,-,-,-2.77,log(mol/L),2.77,-log(M),,,-,,-,,,,-
COC(=O)NC1=NC=2C=CC(=CC2N1)C(=O)C3=CC=CC=C3,-,-,788,mebendazole,A170,15154768,-,-,-3.88,log(mol/L),3.88,-log(M),,,-,,-,,,,-
CCOC(=O)N(C)C(=O)CSP(=S)(OCC)OCC,-,-,789,Mecarbam,A170,15154768,-,-,-2.518,log(mol/L),2.518,-log(M),,,-,,-,,,,-
C=1C(OC)=C(OC)C2C(=O)OCC2C1,-,-,790,meconin,A170,15154768,-,-,-1.899,log(mol/L),1.899,-log(M),,,-,,-,,,,-
CC(=O)C1(C)CCC2C3C=C(C)C4=CC(=O)CCC4(C)C3CCC12C,-,-,791,medrogestone,A170,15154768,-,-,-5.27,log(mol/L),5.27,-log(M),,,-,,-,,,,-
CN(C(=O)COC1=NC=2C=CC=CC2S1)C3=CC=CC=C3,-,-,792,Mefenacet,A170,15154768,-,-,-4.873,log(mol/L),4.873,-log(M),,,-,,-,,,,-
CC(=O)NC1=CC(NS(=O)(=O)C(F)(F)F)=C(C)C=C1C,-,-,793,Mefluidide,A170,15154768,-,-,-3.24,log(mol/L),3.24,-log(M),,,-,,-,,,,-
CC(=O)OC1(CCC2C3C=C(C)C4=CC(=O)CCC4(C)C3CCC12C)C(C)=O,-,-,794,megestrol acetate,A170,15154768,-,-,-5.35,log(mol/L),5.35,-log(M),,,-,,-,,,,-
CC1=CC(=O)C2=CC=CC=C2C1=O,-,-,795,menadione,A170,15154768,-,-,-3.03,log(mol/L),3.03,-log(M),,,-,,-,,,,-
CC(C)C1CCC(C)CC1O,-,-,796,menthol,A170,15154768,-,-,-2.53,log(mol/L),2.53,-log(M),,,-,,-,,,,-
CC(C)C1CCC(C)CC1=O,-,-,797,Menthone,A170,15154768,-,-,-2.35,log(mol/L),2.35,-log(M),,,-,,-,,,,-
CCCC(C)(COC(N)=O)COC(N)=O,-,-,798,Meprobamate,A170,15154768,-,-,-1.807,log(mol/L),1.807,-log(M),,,-,,-,,,,-
SC1=NC=2C=CC=CC2S1,-,-,799,mercaptobenzothiazole,A170,15154768,-,-,-3.18,log(mol/L),3.18,-log(M),,,-,,-,,,,-
COCC(=O)N(C(C)C(=O)OC)C1=C(C)C=CC=C1C,-,-,800,metalaxyl,A170,15154768,-,-,-1.601,log(mol/L),1.601,-log(M),,,-,,-,,,,-
C,-,-,801,Methane,A170,15154768,-,-,-0.9,log(mol/L),0.9,-log(M),,,-,,-,,,,-
CO,-,-,802,Methanol,A170,15154768,-,-,1.57,log(mol/L),-1.57,-log(M),,,-,,-,,,,-
CC1=CC=CC=C1N2C(C)=NC=3C=CC=CC3C2=O,-,-,803,Methaqualone,A170,15154768,-,-,-2.925,log(mol/L),2.925,-log(M),,,-,,-,,,,-
CCC1(CC)C(=O)NC(=O)N(C)C1=O,-,-,804,metharbital,A170,15154768,-,-,-2.23,log(mol/L),2.23,-log(M),,,-,,-,,,,-
CN1C(ON(C1=O)C2=CC=C(C(Cl)=C2)Cl)=O,-,-,805,methazole,A170,15154768,-,-,-2.82,log(mol/L),2.82,-log(M),,,-,,-,,,,-
COC1=CC=CC=C1OCC(O)COC(N)=O,-,-,806,Methocarbamol,A170,15154768,-,-,-0.985,log(mol/L),0.985,-log(M),,,-,,-,,,,-
COC(C)(C)CCCC(C)CC=CC(C)=CC(=O)OC(C)C,-,-,807,methoprene,A170,15154768,-,-,-5.19,log(mol/L),5.19,-log(M),,,-,,-,,,,-
COCCCNC1=NC(NC(C)C)=NC(SC)=N1,-,-,808,Methoproptryne,A170,15154768,-,-,-2.928,log(mol/L),2.928,-log(M),,,-,,-,,,,-
COC=1C=2OC=CC2C=C3C=CC(=O)OC13,-,-,809,methoxsalen,A170,15154768,-,-,-3.664,log(mol/L),3.664,-log(M),,,-,,-,,,,-
COC1=CC=C(C=C1)C(C2=CC=C(OC)C=C2)C(Cl)(Cl)Cl,-,-,810,methoxychlor,A170,15154768,-,-,-6.89,log(mol/L),6.89,-log(M),,,-,,-,,,,-
COC(=O)C,-,-,811,Methyl acetate,A170,15154768,-,-,0.46,log(mol/L),-0.46,-log(M),,,-,,-,,,,-
COC(=O)C=C,-,-,812,methyl acrylate,A170,15154768,-,-,-0.22,log(mol/L),0.22,-log(M),,,-,,-,,,,-
COC(=O)C1=CC=CC=C1,-,-,813,methyl benzoate,A170,15154768,-,-,-1.85,log(mol/L),1.85,-log(M),,,-,,-,,,,-
CCCCOC,-,-,814,methyl butyl ether,A170,15154768,-,-,-0.99,log(mol/L),0.99,-log(M),,,-,,-,,,,-
CCCOC(=O)CC,-,-,815,methyl butyrate,A170,15154768,-,-,-0.82,log(mol/L),0.82,-log(M),,,-,,-,,,,-
CCCCCCCCCC(=O)OC,-,-,816,Methyl decanoate,A170,15154768,-,-,-4.69,log(mol/L),4.69,-log(M),,,-,,-,,,,-
COC=O,-,-,817,methyl formate,A170,15154768,-,-,0.58,log(mol/L),-0.58,-log(M),,,-,,-,,,,-
COC(=O)C1=CC(O)=C(O)C(O)=C1,-,-,818,methyl gallate,A170,15154768,-,-,-1.24,log(mol/L),1.24,-log(M),,,-,,-,,,,-
CCCCCC(OC)=O,-,-,819,Methyl hexanoate,A170,15154768,-,-,-1.87,log(mol/L),1.87,-log(M),,,-,,-,,,,-
CNN,-,-,820,methyl hydrazine,A170,15154768,-,-,1.34,log(mol/L),-1.34,-log(M),,,-,,-,,,,-
CCCCCCCCCCCC(OC)=O,-,-,821,methyl laurate,A170,15154768,-,-,-4.69,log(mol/L),4.69,-log(M),,,-,,-,,,,-
COC(=O)C1=CC=CN=C1,-,-,822,methyl nicotinate,A170,15154768,-,-,-0.46,log(mol/L),0.46,-log(M),,,-,,-,,,,-
CCCCCCCCC(=O)OC,-,-,823,Methyl nonanoate,A170,15154768,-,-,-3.38,log(mol/L),3.38,-log(M),,,-,,-,,,,-
CCCCCCCC(OC)=O,-,-,824,Methyl octanoate,A170,15154768,-,-,-3.17,log(mol/L),3.17,-log(M),,,-,,-,,,,-
C(CCC)(=O)OCC,-,-,825,Methyl pentanoate,A170,15154768,-,-,-1.36,log(mol/L),1.36,-log(M),,,-,,-,,,,-
C(CC)(=O)OC,-,-,826,methyl propionate,A170,15154768,-,-,-0.14,log(mol/L),0.14,-log(M),,,-,,-,,,,-
CCCOC,-,-,827,methyl propyl ether,A170,15154768,-,-,-0.39,log(mol/L),0.39,-log(M),,,-,,-,,,,-
COC(C)(C)C,-,-,828,Methyl t-butyl ether,A170,15154768,-,-,-0.24,log(mol/L),0.24,-log(M),,,-,,-,,,,-
CC1CCCCC1,-,-,829,Methylcyclohexane,A170,15154768,-,-,-3.85,log(mol/L),3.85,-log(M),,,-,,-,,,,-
CC1CCCC1,-,-,830,Methylcyclopentane,A170,15154768,-,-,-3.3,log(mol/L),3.3,-log(M),,,-,,-,,,,-
CN(C(=O)NC(C)(C)C1=CC=CC=C1)C2=CC=CC=C2,-,-,831,Methyldymron,A170,15154768,-,-,-3.35,log(mol/L),3.35,-log(M),,,-,,-,,,,-
COC(=O)C1=CC=C(O)C=C1,-,-,832,Methylparaben,A170,15154768,-,-,-1.827,log(mol/L),1.827,-log(M),,,-,,-,,,,-
CC(=O)OC1(C)CCC2C3CCC4=CC(=O)CCC4(C)C3CCC12C,-,-,833,methyltestosterone acetate,A170,15154768,-,-,-5.284,log(mol/L),5.284,-log(M),,,-,,-,,,,-
CC1=CC(=O)NC(=S)N1,-,-,834,methylthiouracil,A170,15154768,-,-,-2.436,log(mol/L),2.436,-log(M),,,-,,-,,,,-
CCC1=CC=CC(C)=C1N(C(C)COC)C(=O)CCl,-,-,835,metolachlor,A170,15154768,-,-,-2.73,log(mol/L),2.73,-log(M),,,-,,-,,,,-
CC1NC2=CC(Cl)=C(C=C2C(=O)N1C3=CC=CC=C3C)S(N)(=O)=O,-,-,836,Metolazone,A170,15154768,-,-,-3.78,log(mol/L),3.78,-log(M),,,-,,-,,,,-
C1=CC=CC=C1OC(=O)NC,-,-,837,Metolcarb,A170,15154768,-,-,-1.803,log(mol/L),1.803,-log(M),,,-,,-,,,,-
COC1=CC=C(NC(=O)N(C)C)C=C1Cl,-,-,838,Metoxuron,A170,15154768,-,-,-2.564,log(mol/L),2.564,-log(M),,,-,,-,,,,-
CC1=NC=C(N(=O)=O)N1CCO,-,-,839,Metranidazole,A170,15154768,-,-,-1.26,log(mol/L),1.26,-log(M),,,-,,-,,,,-
CSC1=NN=C(C(=O)N1N)C(C)(C)C,-,-,840,Metribuzin,A170,15154768,-,-,-2.253,log(mol/L),2.253,-log(M),,,-,,-,,,,-
CC1=NC=C(N(=O)=O)N1CCO,-,-,841,Metronidazole,A170,15154768,-,-,-1.22,log(mol/L),1.22,-log(M),,,-,,-,,,,-
FC1=CC=CC(Br)=C1,-,-,842,m-Fluorobromobenzene,A170,15154768,-,-,-2.67,log(mol/L),2.67,-log(M),,,-,,-,,,,-