SMILES,CASRN,EXTERNALID,N,NAME,ARTICLEID,PUBMEDID,PAGE,TABLE,Solubility_log(mol/L),UNIT {Water solubility},"Water solubility {measured, converted}",UNIT {Water solubility}.1,Dataset,Temperature,UNIT {Temperature},Ionic strength,UNIT {Ionic strength},comment (chemical),source,pH,UNIT {pH}
C1=CC=CC=C1S(=O)(=O)NC(=O)NCCCC,3149-00-6,-,538,phenbutamide,A171,10850781,-,-,-3.05,log(mol/L),3.05,-log(M),Train,,-,,-,,,,-
ClC1=C(Cl)C=CC=C1,95-50-1,-,539,"1,2-Dichlorobenzene",A171,10850781,-,-,-3.05,log(mol/L),3.05,-log(M),Train,,-,,-,,,,-
OC(C=1C=2C=CC=CC2N=CC1)C3N4CCC(C(C4)C=C)C3,485-71-2,-,540,cinchonidine,A171,10850781,-,-,-3.07,log(mol/L),3.07,-log(M),Train,,-,,-,,,,-
BrCCCCC,110-53-2,-,541,1-bromopentane,A171,10850781,-,-,-3.07,log(mol/L),3.07,-log(M),Train,,-,,-,,,,-
OC1=CC(O)=CC=C1C2=C(O)C(C3=C(O)C=C(O)C=C3O2)=O,480-16-0,-,542,morin,A171,10850781,-,-,-3.08,log(mol/L),3.08,-log(M),Train,,-,,-,,,,-
OC(C1N2CC(C=C)C(CC2)C1)C3=CC=NC4=C3C=CC=C4,118-10-5,-,543,cinchonine,A171,10850781,-,-,-3.09,log(mol/L),3.09,-log(M),Train,,-,,-,,,,-
CC12CCC3C(C)C(OC3C2=C(C(C=C1)=O)C)=O,481-06-1,-,544,santonin,A171,10850781,-,-,-3.09,log(mol/L),3.09,-log(M),Train,,-,,-,,,,-
CCC1=CC=C(C)C=C1,622-96-8,-,545,1-ethyl-4-methylbenzene,A171,10850781,-,-,-3.11,log(mol/L),3.11,-log(M),Train,,-,,-,,,,-
O=C1CCC2(C)C(CCC3C2C(CC4(C)C3CCC4(O)C(CO)=O)=O)=C1,53-06-5,-,546,Cortisone,A171,10850781,-,-,-3.11,log(mol/L),3.11,-log(M),Train,,-,,-,,,,-
ClCCCCCC,544-10-5,-,547,1-chlorohexane,A171,10850781,-,-,-3.12,log(mol/L),3.12,-log(M),Train,,-,,-,,,,-
OC12C(CC3C(O)(C4=C(C(=O)C3=C1O)C(O)=CC=C4)C)C(N(C)C)C(O)=C(C2=O)C(=O)N,60-54-8,-,548,tetracycline,A171,10850781,-,,-3.12,log(mol/L),3.12,-log(M),Train,,-,,-,,,,-
CCCCN(CCCC)CCCC,102-82-9,-,549,tributylamine,A171,10850781,-,-,-3.12,log(mol/L),3.12,-log(M),Train,,-,,-,,,,-
ClC(F)(F)C(F)(F)Cl,76-14-2,-,550,"1,2-dichlorotetrafluoroethane",A171,10850781,-,-,-3.12,log(mol/L),3.12,-log(M),Train,,-,,-,,,,-
O=C(C1=CC=CC=C1C(OCC=C)=O)OCC=C,131-17-9,-,551,diallyl phthalate,A171,10850781,-,-,-3.13,log(mol/L),3.13,-log(M),Train,,-,,-,,,,-
CC=CC1=CC=C(OC)C=C1,104-46-1,-,552,anethole,A171,10850781,-,-,-3.13,log(mol/L),3.13,-log(M),Train,,-,,-,,,,-
FC1=CC=C(I)C=C1,352-34-1,-,553,1-fluoro-4-iodobenzene,A171,10850781,-,-,-3.13,log(mol/L),3.13,-log(M),Train,,-,,-,,,,-
OC1C2C(O)(C(=O)C=3C1C(O)(C4=C(C3O)C(O)=CC=C4)C)C(O)=C(C(=O)C2N(C)C)C(=O)N,-,-,554,oxytetracycline,A171,10850781,-,,-3.14,log(mol/L),3.14,-log(M),Train,,-,,-,,,,-
BrC(Br)(Br)Br,558-13-4,-,555,tetrabromomethane,A171,10850781,-,-,-3.14,log(mol/L),3.14,-log(M),Train,,-,,-,,,,-
COC1=C2C(C3C4=CC=C(OC)C(OC)=C4C(O3)=O)N(C)CCC2=CC5=C1OCO5,128-62-1,-,556,noscapine,A171,10850781,-,-,-3.14,log(mol/L),3.14,-log(M),Train,,-,,-,,,,-
O=C(C=1SCCOC1C)NC2=CC=CC=C2,5234-68-4,-,557,carboxin,A171,10850781,-,-,-3.14,log(mol/L),3.14,-log(M),Train,,-,,-,,,,-
ClC1=NC(NC(C)(C)C#N)=NC(NCC)=N1,21725-46-2,-,558,cyanazine,A171,10850781,-,-,-3.15,log(mol/L),3.15,-log(M),Train,,-,,-,,,,-
O=C(NC1=CC=CC=C1)NC2=CC=CC=C2,102-07-8,-,559,carbanilide,A171,10850781,-,-,-3.15,log(mol/L),3.15,-log(M),Train,,-,,-,,,,-
O=C(C1=CC=CC=C1O)OC2=CC=CC=C2,118-55-8,-,560,phenyl salicylate,A171,10850781,-,-,-3.15,log(mol/L),3.15,-log(M),Train,,-,,-,,,,-
CCN(CCNC(C1=C(OC)C=C(N)C(Cl)=C1)=O)CC,364-62-5,-,561,Metoclopramide,A171,10850781,-,-,-3.18,log(mol/L),3.18,-log(M),Train,,-,,-,,,,-
SC1=NC=2C=CC=CC2S1,149-30-4,-,562,2-mercaptobenzothiazole,A171,10850781,-,-,-3.18,log(mol/L),3.18,-log(M),Train,,-,,-,,,,-
CCCCC,109-66-0,-,563,n-pentane,A171,10850781,-,-,-3.18,log(mol/L),3.18,-log(M),Train,,-,,-,,,,-
CC1=C(C)C=CC=C1C,526-73-8,-,564,"1,2,3-trimethylbenzene",A171,10850781,-,-,-3.2,log(mol/L),3.2,-log(M),Train,,-,,-,,,,-
BrC1=CC(Cl)=CC=C1,108-37-2,-,565,1-bromo-3-chlorobenzene,A171,10850781,-,-,-3.21,log(mol/L),3.21,-log(M),Train,,-,,-,,,,-
CCC1=CC=CC=C1C,611-14-3,-,566,1-ethyl-2-methylbenzene,A171,10850781,-,-,-3.21,log(mol/L),3.21,-log(M),Train,,-,,-,,,,-
O=C(O)C(C1=CC=CC=C1)C2=CC=CC=C2,117-34-0,-,567,diphenylacetic acid,A171,10850781,-,-,-3.22,log(mol/L),3.22,-log(M),Train,,-,,-,,,,-
IC=CI,590-27-2,-,568,"1,2-diiodoethylene",A171,10850781,-,,-3.22,log(mol/L),3.22,-log(M),Train,,-,,-,,,,-
C=CCCCC,592-41-6,-,569,1-hexene,A171,10850781,-,-,-3.23,log(mol/L),3.23,-log(M),Train,,-,,-,,,,-
ClC1=CC(N)=CC=C1Cl,95-76-1,-,570,"3,4-dichloroaniline",A171,10850781,-,-,-3.24,log(mol/L),3.24,-log(M),Train,,-,,-,,,,-
CC(NC1=C(C)C=C(C)C(NS(=O)(C(F)(F)F)=O)=C1)=O,53780-34-0,-,571,Mefluidide,A171,10850781,-,-,-3.24,log(mol/L),3.24,-log(M),Train,,-,,-,,,,-
CC(NC1=CC=C(C=C1)I)=O,622-50-4,-,572,4-iodoacetanilide,A171,10850781,-,-,-3.25,log(mol/L),3.25,-log(M),Train,,-,,-,,,,-
O=C(N(C1=C(CC)C=CC=C1CC)COC)CCl,15972-60-8,-,573,alachlor,A171,10850781,-,-,-3.26,log(mol/L),3.26,-log(M),Train,,-,,-,,,,-
O=C(C1=CC=C(C=C1)N)OCCCCC,13110-37-7,-,574,pentyl-4-aminobenzoate,A171,10850781,-,-,-3.26,log(mol/L),3.26,-log(M),Train,,-,,-,,,,-
COC(C1=C(Cl)C(N)=CC(Cl)=C1)=O,7286-84-2,-,575,chloramben methyl ester,A171,10850781,-,-,-3.26,log(mol/L),3.26,-log(M),Train,,-,,-,,,,-
C1=CC(N)=CC=C1C(=O)OCCNCCCCC,2188-67-2,-,576,naepaine,A171,10850781,-,-,-3.27,log(mol/L),3.27,-log(M),Train,,-,,-,,,,-
O=C(C1=CC(I)=CC=C1)O,618-51-9,-,577,m-iodobenzoic acid,A171,10850781,-,-,-3.27,log(mol/L),3.27,-log(M),Train,,-,,-,,,,-
CC1=CCCCC1,591-49-1,-,578,1-methylcyclohexene,A171,10850781,-,-,-3.27,log(mol/L),3.27,-log(M),Train,,-,,-,,,,-
CC(C)C1=CC=CC=C1,98-82-8,-,579,isopropylbenzene,A171,10850781,-,-,-3.27,log(mol/L),3.27,-log(M),Train,,-,,-,,,,-
COC1=NN=C(NS(=O)(C2=CC=C(C=C2)N)=O)C=C1,80-35-3,-,580,sulfamethoxypyridazine,A171,10850781,-,-,-3.28,log(mol/L),3.28,-log(M),Train,,-,,-,,,,-
O=C(NC)OC=1C=2C=CC=CC2C=CC1,63-25-2,-,581,carbaryl,A171,10850781,-,-,-3.28,log(mol/L),3.28,-log(M),Train,,-,,-,,,,-
CC1CCCC1,96-37-7,-,582,Methylcyclopentane,A171,10850781,-,-,-3.3,log(mol/L),3.3,-log(M),Train,,-,,-,,,,-
CC1=C(C(NC2=CC=CC=C2)=O)C=CO1,24691-80-3,-,583,fenfuram,A171,10850781,-,-,-3.3,log(mol/L),3.3,-log(M),Train,,-,,-,,,,-
O=C(C1=CC(I)=CC(=C1O)I)O,133-91-5,-,584,"3,5-diiodosalicylic acid",A171,10850781,-,-,-3.31,log(mol/L),3.31,-log(M),Train,,-,,-,,,,-
O=C(C1=CC=C(Cl)C=C1)O,74-11-3,-,585,p-chlorobenzoic acid,A171,10850781,-,-,-3.31,log(mol/L),3.31,-log(M),Train,,-,,-,,,,-
CC(CCCCCCCC)=O,693-54-9,-,586,2-decanone,A171,10850781,-,-,-3.31,log(mol/L),3.31,-log(M),Train,,-,,-,,,,-
CC1=CC(C)=CC=C1C,95-63-6,-,587,"1,2,4-trimethylbenzene",A171,10850781,-,-,-3.31,log(mol/L),3.31,-log(M),Train,,-,,-,,,,-
BrC1=CC(C#N)=CC(Br)=C1O,1689-84-5,-,589,bromoxynil,A171,10850781,-,-,-3.33,log(mol/L),3.33,-log(M),Train,,-,,-,,,,-
CCOP(OCC)(N1C(C2=CC=CC=C2C1=O)=O)=S,5131-24-8,-,590,ditalimfos,A171,10850781,-,-,-3.35,log(mol/L),3.35,-log(M),Train,,-,,-,,,,-
C=12C=3C=CC=NC3C=CC1C=CC=C2,85-02-9,-,591,benzo(f)quinoline,A171,10850781,-,-,-3.36,log(mol/L),3.36,-log(M),Train,,-,,-,,,,-
S=C1NC(C(C(N1)=O)(C(C)CCC)CC)=O,76-75-5,-,592,thiopental,A171,10850781,-,-,-3.36,log(mol/L),3.36,-log(M),Train,,-,,-,,,,-
OC1CCC2(C)C3CC(O)C4(C)C(C(C)CCC(O)=O)CCC4C3C(O)CC2C1,81-25-4,-,593,cholic acid,A171,10850781,-,-,-3.37,log(mol/L),3.37,-log(M),Train,,-,,-,,,,-
CCN1C=C(C(O)=O)C(C=2C1=NC(C)=CC2)=O,389-08-2,-,594,nalidixic acid,A171,10850781,-,-,-3.37,log(mol/L),3.37,-log(M),Train,,-,,-,,,,-
C1(CN2CCC1CC2C(C3=CC=NC4=C3C=C(C=C4)OC)O)C=C,56-54-2,-,595,quinidine,A171,10850781,-,-,-3.37,log(mol/L),3.37,-log(M),Train,,-,,-,,,,-
CCCC1=CC=CC=C1,103-65-1,-,596,n-Propylbenzene,A171,10850781,-,-,-3.37,log(mol/L),3.37,-log(M),Train,,-,,-,,,,-
OC(C1=CC=C(F)C=C1)(C2=C(F)C=CC=C2)CN3C=NC=N3,76674-21-0,-,597,flutriafol,A171,10850781,-,-,-3.37,log(mol/L),3.37,-log(M),Train,,-,,-,,,,-
CCCCCCCC(OC)=O,111-11-5,-,598,methyl caprylate,A171,10850781,-,-,-3.39,log(mol/L),3.39,-log(M),Train,,-,,-,,,,-
S=C(SCC(Cl)=C)N(CC)CC,95-06-7,-,599,sulfallate,A171,10850781,-,-,-3.39,log(mol/L),3.39,-log(M),Train,,-,,-,,,,-
O=C(NS(C1=CC=C(C)C=C1)(=O)=O)NCCCC,64-77-7,-,600,tolbutamide,A171,10850781,-,-,-3.39,log(mol/L),3.39,-log(M),Train,,-,,-,,,,-
CN(CCC=C1C2=C(C=CC=C2)OCC3=C1C=CC=C3)C,1668-19-5,-,601,Doxepin,A171,10850781,-,-,-3.4,log(mol/L),3.4,-log(M),Train,,-,,-,,,,-
O=C(O)CCCCCCCCC=C,112-38-9,-,602,undecylenic acid,A171,10850781,-,-,-3.4,log(mol/L),3.4,-log(M),Train,,-,,-,,,,-
CC1=CC(C)=CC(C)=C1,108-67-8,-,603,"1,3,5-trimethylbenzene",A171,10850781,-,-,-3.4,log(mol/L),3.4,-log(M),Train,,-,,-,,,,-
CCOC1OC2=CC=C(C=C2C1(C)C)OS(C)(=O)=O,26225-79-6,-,604,ethofumesate,A171,10850781,-,-,-3.42,log(mol/L),3.42,-log(M),Train,,-,,-,,,,-
O=C1CCC2(C)C(CCC3C2(F)C(O)CC4(C)C3CCC4(O)C(CO)=O)=C1,127-31-1,-,605,fludrocortisone,A171,10850781,-,-,-3.43,log(mol/L),3.43,-log(M),Train,,-,,-,,,,-
O=C(NC1=CC(C(F)(F)F)=CC=C1)N(C)C,2164-17-2,-,606,fluometuron,A171,10850781,-,-,-3.43,log(mol/L),3.43,-log(M),Train,,-,,-,,,,-
CCCCCCCCCC(O)=O,334-48-5,-,607,caprinic acid,A171,10850781,-,-,-3.44,log(mol/L),3.44,-log(M),Train,,-,,-,,,,-
S=C1NC(C(C(N1)=O)(C(C)CCC)CC=C)=O,77-27-0,-,608,thiamylal,A171,10850781,-,-,-3.46,log(mol/L),3.46,-log(M),Train,,-,,-,,,,-
CC12C(CCC3C1C(CC4(C3CCC4=O)C)=O)=CC(=O)CC2,382-45-6,-,609,adrenosterone,A171,10850781,-,-,-3.48,log(mol/L),3.48,-log(M),Train,,-,,-,,,,-
O=C(C1=CC=CC=C1)OCCCC,136-60-7,-,610,butyl benzoate,A171,10850781,-,-,-3.48,log(mol/L),3.48,-log(M),Train,,-,,-,,,,-
OC1=CC=C(C2=CC=CC=C2)C=C1,92-69-3,-,611,p-phenylphenol,A171,10850781,-,-,-3.48,log(mol/L),3.48,-log(M),Train,,-,,-,,,,-
BrC1=CC=CC=C1Br,583-53-9,-,612,"1,2-dibromobenzene",A171,10850781,-,-,-3.5,log(mol/L),3.5,-log(M),Train,,-,,-,,,,-
O=S(=O)(NC1=NC=CC=N1)C2=CC=C(N)C=C2,68-35-9,-,613,sulfadiazine,A171,10850781,-,-,-3.51,log(mol/L),3.51,-log(M),Train,,-,,-,,,,-
C1(NC2=CC=CC=C2)=CC=CC=C1,122-39-4,-,614,diphenylamine,A171,10850781,-,-,-3.51,log(mol/L),3.51,-log(M),Train,,-,,-,,,,-
C1CCCCCC1,291-64-5,-,615,cycloheptane,A171,10850781,-,-,-3.52,log(mol/L),3.52,-log(M),Train,,-,,-,,,,-
O=C(NC1=CC(Cl)=C(Cl)C=C1)N(C)OC,330-55-2,-,616,linuron,A171,10850781,-,-,-3.52,log(mol/L),3.52,-log(M),Train,,-,,-,,,,-
CC1=CC(Br)=CC=C1,591-17-3,-,617,m-bromotoluene,A171,10850781,-,-,-3.52,log(mol/L),3.52,-log(M),Train,,-,,-,,,,-
CC1=CC=CC=C1Cl,95-49-8,-,618,o-chlorotoluene,A171,10850781,-,-,-3.52,log(mol/L),3.52,-log(M),Train,,-,,-,,,,-
O=N(C=1C=2C=CC=CC2C=CC1)=O,86-57-7,-,619,1-nitronaphthalene,A171,10850781,-,-,-3.54,log(mol/L),3.54,-log(M),Train,,-,,-,,,,-
CC(C)(C)CC,75-83-2,-,620,"2,2-Dimethylbutane",A171,10850781,-,-,-3.55,log(mol/L),3.55,-log(M),Train,,-,,-,,,,-
O=C(N(CC)CC)C(OC1=CC=CC2=C1C=CC=C2)C,15299-99-7,-,621,napropamide,A171,10850781,-,-,-3.57,log(mol/L),3.57,-log(M),Train,,-,,-,,,,-
C1=CC(N)=CC=C1S(=O)(=O)N(C(=O)C)C=2ON=C(C)C2C,80-74-0,-,622,acetyl sulfisoxazole,A171,10850781,-,-,-3.59,log(mol/L),3.59,-log(M),Train,,-,,-,,,,-
O=S1(C2=CC(S(N)(=O)=O)=C(C(F)(F)F)C=C2NC(CC3=CC=CC=C3)N1)=O,73-48-3,-,623,bendroflumethiazide,A171,10850781,-,-,-3.59,log(mol/L),3.59,-log(M),Train,,-,,-,,,,-
ClC1=C(Cl)C=C(Cl)C=C1,120-82-1,-,624,"1,2,4-trichlorobenzene",A171,10850781,-,-,-3.59,log(mol/L),3.59,-log(M),Train,,-,,-,,,,-
O=C(C1=CC=CC=C1O)NC2=CC=CC=C2,87-17-2,-,625,salicylanilide,A171,10850781,-,-,-3.59,log(mol/L),3.59,-log(M),Train,,-,,-,,,,-
C1=CC=CC2=C1C=CC=C2,91-20-3,-,626,Naphthalene,A171,10850781,-,-,-3.6,log(mol/L),3.6,-log(M),Train,,-,,-,,,,-
ClC1=CC=CC=C1C=2C3=CC(Cl)=CC=C3NC(=O)C(N2)O,846-49-1,-,627,Lorazepam,A171,10850781,-,-,-3.6,log(mol/L),3.6,-log(M),Train,,-,,-,,,,-
OC1=C(I)C=C(C#N)C=C1I,1689-83-4,-,628,Ioxynil,A171,10850781,-,-,-3.61,log(mol/L),3.61,-log(M),Train,,-,,-,,,,-
O=C(C(C)(C)C)C(N1C=NC=N1)OC2=CC=C(Cl)C=C2,43121-43-3,-,629,triadimefon,A171,10850781,-,-,-3.61,log(mol/L),3.61,-log(M),Train,,-,,-,,,,-
CCCCCCCCCCO,112-30-1,-,630,1-decanol,A171,10850781,-,-,-3.63,log(mol/L),3.63,-log(M),Train,,-,,-,,,,-
BrC1=CC=C(Cl)C=C1,106-39-8,-,631,1-bromo-4-chlorobenzene,A171,10850781,-,-,-3.63,log(mol/L),3.63,-log(M),Train,,-,,-,,,,-
O=C1C=CC2(C)C(CCC3C2(F)C(O)CC4(C)C3CC(C)C4(O)C(CO)=O)=C1,50-02-2,-,632,Dexamethasone,A171,10850781,-,-,-3.64,log(mol/L),3.64,-log(M),Train,,-,,-,,,,-
CC(CCC(O)=O)C1CCC2C3C(O)CC4CC(O)CCC4(C)C3CCC12C,474-25-9,-,633,chenodeoxycholic acid,A171,10850781,-,-,-3.64,log(mol/L),3.64,-log(M),Train,,-,,-,,,,-
CNCCCN1C2=C(CCC3=C1C=CC=C3)C=CC=C2,50-47-5,-,634,Desipramine,A171,10850781,-,-,-3.66,log(mol/L),3.66,-log(M),Train,,-,,-,,,,-
C#CCCCCCC,629-05-0,-,635,1-octyne,A171,10850781,-,-,-3.66,log(mol/L),3.66,-log(M),Train,,-,,-,,,,-
ClC(Cl)(Cl)C(Cl)(Cl)Cl,67-72-1,-,636,hexachloroethane,A171,10850781,-,-,-3.67,log(mol/L),3.67,-log(M),Train,,-,,-,,,,-
ClC1=C(C=CC(Cl)=C1)OCCCC(O)=O,94-82-6,-,637,"2,4-db",A171,10850781,-,-,-3.67,log(mol/L),3.67,-log(M),Train,,-,,-,,,,-
CC1=CC2=C(N=C3C(NC(N=C3N2CC(O)C(O)C(O)CO)=O)=O)C=C1C,83-88-5,-,638,riboflavin,A171,10850781,-,-,-3.68,log(mol/L),3.68,-log(M),Train,,-,,-,,,,-
O=S(NC(NN1CCCCCC1)=O)(C2=CC=C(C)C=C2)=O,1156-19-0,-,639,tolazamide,A171,10850781,-,-,-3.68,log(mol/L),3.68,-log(M),Train,,-,,-,,,,-
O=C1C=CC2(C)C(CCC3C2(F)C(O)CC4(C)C3CC(O)C4(O)C(CO)=O)=C1,124-94-7,-,640,triamcinolone,A171,10850781,-,-,-3.69,log(mol/L),3.69,-log(M),Train,,-,,-,,,,-
CC12C(CCC3C4CCC(=O)C4(CCC31)C)=CC(CC2)=O,63-05-8,-,641,androstenedione,A171,10850781,-,-,-3.69,log(mol/L),3.69,-log(M),Train,,-,,-,,,,-
O=C(C1=CC=CC=C1)C2=CC=CC(C(C(O)=O)C)=C2,22071-15-4,-,642,Ketoprofen,A171,10850781,-,-,-3.7,log(mol/L),3.7,-log(M),Train,,-,,-,,,,-
C1=CC(N)=CC=C1S(=O)(=O)NC2=CN=CC=N2,116-44-9,-,643,sulfapyrazine,A171,10850781,-,-,-3.7,log(mol/L),3.7,-log(M),Train,,-,,-,,,,-
O=C(CC)N(C1=CC=CC=C1)C2(COC)CCN(CCC3=CC=CS3)CC2,56030-54-7,-,644,sufentanil,A171,10850781,-,-,-3.71,log(mol/L),3.71,-log(M),Train,,-,,-,,,,-
O=C1C(CCCC)C(N(N1C2=CC=C(O)C=C2)C3=CC=CC=C3)=O,129-20-4,-,645,oxyphenbutazone,A171,10850781,-,-,-3.73,log(mol/L),3.73,-log(M),Train,,-,,-,,,,-
CC(C)CCC,107-83-5,-,646,2-methylpentane,A171,10850781,-,-,-3.74,log(mol/L),3.74,-log(M),Train,,-,,-,,,,-
CCC1=CC=C(CC)C=C1,105-05-5,-,647,"1,4-diethylbenzene",A171,10850781,-,-,-3.75,log(mol/L),3.75,-log(M),Train,,-,,-,,,,-
O=NN(C1=CC=CC=C1)C2=CC=CC=C2,86-30-6,-,648,diphenylnitrosamine,A171,10850781,-,-,-3.75,log(mol/L),3.75,-log(M),Train,,-,,-,,,,-
O=C(OC)C(Cl)CC1=CC=C(Cl)C=C1,14437-17-3,-,649,chlorfenprop-methyl,A171,10850781,-,-,-3.77,log(mol/L),3.77,-log(M),Train,,-,,-,,,,-
CC1=CC=2C=CC=CC2C=C1,91-57-6,-,650,2-methylnaphthalene,A171,10850781,-,-,-3.77,log(mol/L),3.77,-log(M),Train,,-,,-,,,,-
CC1NC2=CC(Cl)=C(S(N)(=O)=O)C=C2C(N1C3=CC=CC=C3C)=O,17560-51-9,-,651,Metolazone,A171,10850781,-,-,-3.78,log(mol/L),3.78,-log(M),Train,,-,,-,,,,-
CC1=CC=CC(C)=C1NC(C2=CC(S(N)(=O)=O)=C(C=C2O)Cl)=O,14293-44-8,-,652,Xipamide,A171,10850781,-,-,-3.79,log(mol/L),3.79,-log(M),Train,,-,,-,,,,-
O=C1CN=C(C2=CC=CC=C2)C3=CC(N(=O)=O)=CC=C3N1C,2011-67-8,-,653,nimetazepam,A171,10850781,-,-,-3.8,log(mol/L),3.8,-log(M),Train,,-,,-,,,,-
CCOC1=CC=C2N=C(S(N)(=O)=O)SC2=C1,452-35-7,-,654,ethoxyzolamide,A171,10850781,-,-,-3.81,log(mol/L),3.81,-log(M),Train,,-,,-,,,,-
O=C1C(CCCC)C(N(N1C2=CC=CC=C2)C3=CC=CC=C3)=O,50-33-9,-,655,Phenylbutazone,A171,10850781,-,-,-3.81,log(mol/L),3.81,-log(M),Train,,-,,-,,,,-
BrCCCCCC,111-25-1,-,656,1-bromohexane,A171,10850781,-,-,-3.81,log(mol/L),3.81,-log(M),Train,,-,,-,,,,-
C12CC(O)CCC1(C)C3C(C4CCC(C(CCC(O)=O)C)C4(C)CC3)CC2O,83-49-8,-,657,hyodeoxycholic acid,A171,10850781,-,-,-3.82,log(mol/L),3.82,-log(M),Train,,-,,-,,,,-
O(CCN(CC)CC)C(=O)C1=CC=C(OCCCC)C=C1,3772-43-8,-,658,-,A171,10850781,-,,-3.84,log(mol/L),3.84,-log(M),Train,,-,,-,,,,-
CC(CC)C1=CC=CC=C1,135-98-8,-,659,2-butylbenzene,A171,10850781,-,-,-3.89,log(mol/L),3.89,-log(M),Train,,-,,-,,,,-
ClC=1C=2C=CC=CC2C=CC1,90-13-1,-,660,1-chloronaphthalene,A171,10850781,-,-,-3.93,log(mol/L),3.93,-log(M),Train,,-,,-,,,,-
C1=CC(N)=CC=C1C(=O)OCCCCCC,13476-55-6,-,661,hexyl-4-aminobenzoate,A171,10850781,-,-,-3.95,log(mol/L),3.95,-log(M),Train,,-,,-,,,,-
OC1=C(C=C(Cl)C=C1)CC2=CC(Cl)=CC=C2O,97-23-4,-,662,dichlorphen,A171,10850781,-,-,-3.95,log(mol/L),3.95,-log(M),Train,,-,,-,,,,-
C=12C=CC=C3C=CC(C31)=CC=C2,208-96-8,-,663,acenaphthylene,A171,10850781,-,-,-3.96,log(mol/L),3.96,-log(M),Train,,-,,-,,,,-
CC12CCC3C4=C(CCC3C1CCC2=O)C=C(O)C=C4,53-16-7,-,664,estrone,A171,10850781,-,-,-3.96,log(mol/L),3.96,-log(M),Train,,-,,-,,,,-
CC=1C=2C=CC3=C(N=CC=C3C)C2N=CC1,491-01-0,-,665,"4,7-dimethyl-1,10-phenanthroline",A171,10850781,-,-,-3.97,log(mol/L),3.97,-log(M),Train,,-,,-,,,,-
OC1CCN(CC1)CCCN2C3=CC=CC=C3SC4=C2C=C(C#N)C=C4,2622-26-6,-,666,Pericyazine,A171,10850781,-,-,-3.98,log(mol/L),3.98,-log(M),Train,,-,,-,,,,-
CC(CC1=CC=C(C=C1)C(C)C(O)=O)C,15687-27-1,-,667,Ibuprofen,A171,10850781,-,-,-3.99,log(mol/L),3.99,-log(M),Train,,-,,-,,,,-
CC(C)(C)NC1=NC(SC)=NC(NCC)=N1,886-50-0,-,668,terbutryne,A171,10850781,-,-,-4.0,log(mol/L),4.0,-log(M),Train,,-,,-,,,,-
CC1=CCC(C(C)=C)CC1,5989-27-5,-,669,d-limonene,A171,10850781,-,-,-4.0,log(mol/L),4.0,-log(M),Train,,-,,-,,,,-
OC1=C(Cl)C(Cl)=C(Cl)C(Cl)=C1OC,2539-17-5,-,670,tetrachloroguaiacol,A171,10850781,-,-,-4.02,log(mol/L),4.02,-log(M),Train,,-,,-,,,,-
O=C1C(Cl)=C(NC)C=NN1C2=CC(C(F)(F)F)=CC=C2,27314-13-2,-,671,norflurazon,A171,10850781,-,-,-4.04,log(mol/L),4.04,-log(M),Train,,-,,-,,,,-
CCNC1=NC(N(CC)CC)=NC(Cl)=N1,1912-26-1,-,672,trietazine,A171,10850781,-,-,-4.06,log(mol/L),4.06,-log(M),Train,,-,,-,,,,-
O=C(SCC(Cl)=CCl)N(C(C)C)C(C)C,2303-16-4,-,673,diallate,A171,10850781,-,-,-4.08,log(mol/L),4.08,-log(M),Train,,-,,-,,,,-
ClC1=CC=2C(C3=CC=CC=C3Cl)=NCC4=NN=C(C)N4C2C=C1,28911-01-5,-,674,Triazolam,A171,10850781,-,-,-4.08,log(mol/L),4.08,-log(M),Train,,-,,-,,,,-
CCCCCCCCCC(OCC)=O,110-38-3,-,675,ethyl caprinate,A171,10850781,-,-,-4.1,log(mol/L),4.1,-log(M),Train,,-,,-,,,,-
C12C3CC(C)C4=CC(C=CC4(C)C3(F)C(O)CC1(C)C(C(C)=O)(O)CC2)=O,426-13-1,-,676,fluoromethasone,A171,10850781,-,-,-4.1,log(mol/L),4.1,-log(M),Train,,-,,-,,,,-
O=C(NC1=CC=CC=C1)NC2CCCCC2C,1982-49-6,-,677,siduron,A171,10850781,-,-,-4.11,log(mol/L),4.11,-log(M),Train,,-,,-,,,,-
O=C(C1C(=O)C2=CC=CC=C2C1=O)C(C)(C)C,83-26-1,-,678,pindone,A171,10850781,-,-,-4.11,log(mol/L),4.11,-log(M),Train,,-,,-,,,,-
CC(C)CC1=CC=CC=C1,538-93-2,-,679,isobutylbenzene,A171,10850781,-,-,-4.12,log(mol/L),4.12,-log(M),Train,,-,,-,,,,-
CC12C(=CCC3C1CCC4(C3CCC4=O)C)CC(CC2)O,53-43-0,-,680,prasterone,A171,10850781,-,-,-4.12,log(mol/L),4.12,-log(M),Train,,-,,-,,,,-
CC=1C=2C=CC=CC2C(C)=CC1,571-58-4,-,681,"1,4-dimethylnaphthalene",A171,10850781,-,-,-4.14,log(mol/L),4.14,-log(M),Train,,-,,-,,,,-
ClC1=CC=2C=CC=CC2C=C1,91-58-7,-,682,2-chloronaphthalene,A171,10850781,-,-,-4.14,log(mol/L),4.14,-log(M),Train,,-,,-,,,,-
CC(C)(C1=CC=CC=C1)CC,2049-95-8,-,683,t-amylbenzene,A171,10850781,-,-,-4.15,log(mol/L),4.15,-log(M),Train,,-,,-,,,,-
OCCN1CCN(CC1)CCCN2C3=C(C=CC(C(F)(F)F)=C3)SC4=C2C=CC=C4,69-23-8,-,684,Fluphenazine,A171,10850781,-,-,-4.15,log(mol/L),4.15,-log(M),Train,,-,,-,,,,-
COC1=CC=C(OC2=CC=C(C=C2)NC(N(C)C)=O)C=C1,14214-32-5,-,685,difenoxuron,A171,10850781,-,-,-4.16,log(mol/L),4.16,-log(M),Train,,-,,-,,,,-
COC1=CC=C2C(C=CC(C(C)C(O)=O)=C2)=C1,22204-53-1,-,686,naprosyn,A171,10850781,-,-,-4.16,log(mol/L),4.16,-log(M),Train,,-,,-,,,,-
CCCCC1=C(OS(=O)(N(C)C)=O)N=C(NCC)N=C1C,41483-43-6,-,687,bupirimate,A171,10850781,-,-,-4.16,log(mol/L),4.16,-log(M),Train,,-,,-,,,,-
ClC1=CC2=C(C=C1)SC3=C(C=CC=C3)N2CCCN4CCN(CCO)CC4,58-39-9,-,688,Perphenazine,A171,10850781,-,-,-4.16,log(mol/L),4.16,-log(M),Train,,-,,-,,,,-
CC12C(CCC3C1CCC4(C3CCC4=O)C)CC(CC2)O,481-29-8,-,689,epiandrosterone,A171,10850781,-,-,-4.16,log(mol/L),4.16,-log(M),Train,,-,,-,,,,-
CCC=1C=2C=CC=CC2C=CC1,1127-76-0,-,690,1-ethylnaphthalene,A171,10850781,-,-,-4.17,log(mol/L),4.17,-log(M),Train,,-,,-,,,,-
C1(CC2=CC=CC=C2)=CC=CC=C1,101-81-5,-,691,diphenylmethane,A171,10850781,-,-,-4.17,log(mol/L),4.17,-log(M),Train,,-,,-,,,,-
OC1(C(OC)=O)C2=C(C=CC(Cl)=C2)C3=C1C=CC=C3,2536-31-4,-,692,Methyl-2-chloro-9-hydroxyfluorene-9-carboxylate,A171,10850781,-,-,-4.18,log(mol/L),4.18,-log(M),Train,,-,,-,,,,-
CN(CCCN1C2=C(CCC3=C1C=CC=C3)C=CC=C2)C,50-49-7,-,693,Imipramine,A171,10850781,-,-,-4.19,log(mol/L),4.19,-log(M),Train,,-,,-,,,,-
O=C(CCl)N(C1=C(CC)C=CC=C1CC)COCCCC,23184-66-9,-,694,butachlor,A171,10850781,-,-,-4.19,log(mol/L),4.19,-log(M),Train,,-,,-,,,,-