SMILES,CASRN,EXTERNALID,N,NAME,ARTICLEID,PUBMEDID,PAGE,TABLE,Solubility_log(mol/L),UNIT {Water solubility},"Water solubility {measured, converted}",UNIT {Water solubility}.1,Dataset,Temperature,UNIT {Temperature},Ionic strength,UNIT {Ionic strength},comment (chemical),source,pH,UNIT {pH}
ClC(Cl)(Cl)C(N1CCN(C(NC=O)C(Cl)(Cl)Cl)CC1)NC=O,26644-46-2,-,695,triforine,A171,10850781,-,-,-4.19,log(mol/L),4.19,-log(M),Train,,-,,-,,,,-
CC(OP(OC(C)C)(SCCNS(=O)(C1=CC=CC=C1)=O)=S)C,741-58-2,-,696,bensulide,A171,10850781,-,-,-4.2,log(mol/L),4.2,-log(M),Train,,-,,-,,,,-
O=S(NC(NC1CCCCC1)=O)(C2=CC=C(C=C2)C)=O,664-95-9,-,697,tolcyclamide,A171,10850781,-,-,-4.21,log(mol/L),4.21,-log(M),Train,,-,,-,,,,-
O=C(C1=CC=CC=C1I)NC2=CC=CC=C2,15310-01-7,-,698,benodanil,A171,10850781,-,-,-4.21,log(mol/L),4.21,-log(M),Train,,-,,-,,,,-
CC(CN(C)C)CN1C2=CC(OC)=CC=C2SC3=C1C=CC=C3,60-99-1,-,699,methotrimeprazine,A171,10850781,-,-,-4.22,log(mol/L),4.22,-log(M),Train,,-,,-,,,,-
NC=1C2=CC=3C=CC=CC3N=C2C=CC1,578-06-3,-,700,1-aminoacridine,A171,10850781,-,-,-4.22,log(mol/L),4.22,-log(M),Train,,-,,-,,,,-
S=P(OCC)(OCC)SCCSCC,298-04-4,-,701,disulfoton,A171,10850781,-,-,-4.23,log(mol/L),4.23,-log(M),Train,,-,,-,,,,-
O=C(OC1=CC(C(C)(C)C)=CC(C(C)(C)C)=C1)NC,2655-19-8,-,702,butacarb,A171,10850781,-,-,-4.24,log(mol/L),4.24,-log(M),Train,,-,,-,,,,-
N#CC1=C(Cl)C=CC=C1Cl,1194-65-6,-,703,"2,6-dichlorobenzonitrile",A171,10850781,-,-,-4.24,log(mol/L),4.24,-log(M),Train,,-,,-,,,,-
C#CCCCCCCC,-,-,704,1-nonyne,A171,10850781,-,-,-4.24,log(mol/L),4.24,-log(M),Train,,-,,-,,,,-
CCC1CCCCC1,1678-91-7,-,705,ethylcyclohexane,A171,10850781,-,-,-4.25,log(mol/L),4.25,-log(M),Train,,-,,-,,,,-
CC(C)CC(C)C,108-08-7,-,706,"2,4-dimethylpentane",A171,10850781,-,-,-4.26,log(mol/L),4.26,-log(M),Train,,-,,-,,,,-
CC1C(C)CCCC1,-,-,707,"cis-1,2-dimethylcyclohexane",A171,10850781,-,-,-4.27,log(mol/L),4.27,-log(M),Train,,-,,-,,,,-
CC=1C=2C=CC=CC2C=C(C)C1,575-41-7,-,708,"1,3-dimethylnaphthalene",A171,10850781,-,-,-4.29,log(mol/L),4.29,-log(M),Train,,-,,-,,,,-
CC(OCC(C1(O)CCC2C3CCC4=CC(CCC4(C)C3C(O)CC21C)=O)=O)=O,50-03-3,-,709,hydrocortisone acetate,A171,10850781,-,-,-4.3,log(mol/L),4.3,-log(M),Train,,-,,-,,,,-
COC1=CC=C2C=CC(=O)OC2=C1CC=C(C)C,484-12-8,-,710,osthole,A171,10850781,-,-,-4.31,log(mol/L),4.31,-log(M),Train,,-,,-,,,,-
O=C(O)CCCCCCCCCCCCCC,1002-84-2,-,711,pentadecanoic acid,A171,10850781,-,-,-4.31,log(mol/L),4.31,-log(M),Train,,-,,-,,,,-
C1(C2=CC=CC=C2)=CC=CC=C1,92-52-4,-,712,biphenyl,A171,10850781,-,-,-4.31,log(mol/L),4.31,-log(M),Train,,-,,-,,,,-
CC1CCCCC1C,6876-23-9,-,713,"trans-1,2-dimethylcyclohexane",A171,10850781,-,-,-4.33,log(mol/L),4.33,-log(M),Train,,-,,-,,,,-
BrC1=CC=CC=2C=CC=CC21,90-11-9,-,714,1-bromonapthtalene,A171,10850781,-,-,-4.35,log(mol/L),4.35,-log(M),Train,,-,,-,,,,-
CC(C1CCC2C3CC(C4CC(CCC4(C3CC(C12C)O)C)O)O)CCC(O)=O,547-75-1,-,715,hyocholic acid,A171,10850781,-,-,-4.35,log(mol/L),4.35,-log(M),Train,,-,,-,,,,-
OC1=CC=C(C(CC)=C(CC)C2=CC=C(O)C=C2)C=C1,56-53-1,-,716,des,A171,10850781,-,-,-4.35,log(mol/L),4.35,-log(M),Train,,-,,-,,,,-
O=C(O)C1=C(C=CC=C1)NC2=CC(C(F)(F)F)=CC=C2,530-78-9,-,717,flufenamic acid,A171,10850781,-,-,-4.36,log(mol/L),4.36,-log(M),Train,,-,,-,,,,-
O=C1C=CC2(C)C(CCC3C2C(O)CC4(C)C3CCC4(O)C(COC(C)=O)=O)=C1,52-21-1,-,718,prednisolone acetate,A171,10850781,-,-,-4.37,log(mol/L),4.37,-log(M),Train,,-,,-,,,,-
O=C(OCC#CCCl)NC1=CC=CC(Cl)=C1,101-27-9,-,719,barbane,A171,10850781,-,-,-4.37,log(mol/L),4.37,-log(M),Train,,-,,-,,,,-
OC1CCC2(C)C(CCC3C2CCC4(C)C3CCC4=O)C1,53-41-8,-,720,androsterone,A171,10850781,-,-,-4.4,log(mol/L),4.4,-log(M),Train,,-,,-,,,,-
BrC1=CC=2C=CC=CC2C=C1,580-13-2,-,721,2-bromonaphthalene,A171,10850781,-,-,-4.4,log(mol/L),4.4,-log(M),Train,,-,,-,,,,-
ClC1=CC2=C(C=C1)SC3=C(C=CC=C3)N2CCCN4CCN(C)CC4,58-38-8,-,722,prochlorperazine,A171,10850781,-,-,-4.4,log(mol/L),4.4,-log(M),Train,,-,,-,,,,-
O=C(OCCCC)C1=CC=CC=C1C(OCCCC)=O,84-74-2,-,723,dibutyl phthalate,A171,10850781,-,-,-4.4,log(mol/L),4.4,-log(M),Train,,-,,-,,,,-
O=C1CCC2(C)C(CCC3C2CCC4(C)C3CCC4C(C)=O)=C1,57-83-0,-,724,progesterone,A171,10850781,-,-,-4.43,log(mol/L),4.43,-log(M),Train,,-,,-,,,,-
CC(C)NC1=NC(NC(C)C)=NC(Cl)=N1,139-40-2,-,725,propazine,A171,10850781,-,-,-4.43,log(mol/L),4.43,-log(M),Train,,-,,-,,,,-
O=C1C(C2=CC(C(F)(F)F)=CC=C2)=CN(C)C=C1C3=CC=CC=C3,59756-60-4,-,726,fluridone,A171,10850781,-,-,-4.44,log(mol/L),4.44,-log(M),Train,,-,,-,,,,-
CCCCCCC=C,111-66-0,-,727,1-Octene,A171,10850781,-,-,-4.44,log(mol/L),4.44,-log(M),Train,,-,,-,,,,-
C12CCC(C2(CCC3C4(CCC(CC4=CCC13)OC(C)=O)C)C)=O,853-23-6,-,729,"5,6-dehydroisoandrosterone acetate",A171,10850781,-,-,-4.46,log(mol/L),4.46,-log(M),Train,,-,,-,,,,-
ClC1=CC(Cl)=CC=C1OC2=C(O)C=C(Cl)C=C2,3380-34-5,-,730,triclosan,A171,10850781,-,-,-4.46,log(mol/L),4.46,-log(M),Train,,-,,-,,,,-
CC1CCC(C)CC1,589-90-2,-,731,"1,4-dimethylcyclohexane",A171,10850781,-,-,-4.47,log(mol/L),4.47,-log(M),Train,,-,,-,,,,-
FC1=CC(C(C(O)=O)C)=CC=C1C2=CC=CC=C2,5104-49-4,-,732,Flurbiprofen,A171,10850781,-,-,-4.49,log(mol/L),4.49,-log(M),Train,,-,,-,,,,-
BrC1=CC(Br)=CC=C1Br,615-54-3,-,733,"1,2,4-tribromobenzene",A171,10850781,-,-,-4.5,log(mol/L),4.5,-log(M),Train,,-,,-,,,,-
ClC1C(Cl)C(Cl)C(Cl)C(Cl)C1Cl,319-86-8,-,734,delta-hexachlorocyclohexane,A171,10850781,-,-,-4.51,log(mol/L),4.51,-log(M),Train,,-,,-,,,,-
CCCCCCC,142-82-5,-,735,n-heptane,A171,10850781,-,-,-4.53,log(mol/L),4.53,-log(M),Train,,-,,-,,,,-
ClC1=CC=CC=C1C2=CC=CC=C2,2051-60-7,-,736,2-chlorobiphenyl,A171,10850781,-,-,-4.54,log(mol/L),4.54,-log(M),Train,,-,,-,,,,-
CCNC1=NC(NCC)=NC(Cl)=N1,122-34-9,-,737,simazine,A171,10850781,-,-,-4.55,log(mol/L),4.55,-log(M),Train,,-,,-,,,,-
ClC1=C(Cl)C=CC(Cl)=C1Cl,634-66-2,-,738,"1,2,3,4-tetrachlorobenzene",A171,10850781,-,-,-4.57,log(mol/L),4.57,-log(M),Train,,-,,-,,,,-
O=C1CCC2C(CCC3C2CCC4(C)C3CCC4(C#C)O)=C1,68-22-4,-,739,norethisterone,A171,10850781,-,-,-4.57,log(mol/L),4.57,-log(M),Train,,-,,-,,,,-
ClC1C(Cl)C(Cl)C(Cl)C(Cl)C1Cl,58-89-9,-,740,gamma-hexachlorocyclohexane,A171,10850781,-,-,-4.59,log(mol/L),4.59,-log(M),Train,,-,,-,,,,-
C1=CC(N)=CC=C1C(=O)OCCCCCCC,14309-40-1,-,741,heptyl-4-aminobenzoate,A171,10850781,-,-,-4.6,log(mol/L),4.6,-log(M),Train,,-,,-,,,,-
S=C=NC1=CC=CC2=C1C=CC=C2,551-06-4,-,742,1-naphthyl isothiocyanate,A171,10850781,-,-,-4.6,log(mol/L),4.6,-log(M),Train,,-,,-,,,,-
C12=C(C=CC=C1)OC3=C2C=CC=C3,132-64-9,-,743,dibenzofuran,A171,10850781,-,-,-4.6,log(mol/L),4.6,-log(M),Train,,-,,-,,,,-
ClC1=C(OC)C=C(OC)C2=C1OC3(C(OC)=CC(=O)CC3C)C2=O,126-07-8,-,744,Griseofulvin,A171,10850781,-,-,-4.61,log(mol/L),4.61,-log(M),Train,,-,,-,,,,-
ClC1=CC=C(C=C1)C(N2C(C)=C(CC(O)=O)C=3C=C(OC)C=CC32)=O,53-86-1,-,745,Indomethacin,A171,10850781,-,-,-4.62,log(mol/L),4.62,-log(M),Train,,-,,-,,,,-
CCCCCCCCCCCC(O)=O,143-07-7,-,746,vulvic acid,A171,10850781,-,-,-4.62,log(mol/L),4.62,-log(M),Train,,-,,-,,,,-
CCCCCCCCCC(OC)=O,110-42-9,-,747,methyl caprate,A171,10850781,-,-,-4.63,log(mol/L),4.63,-log(M),Train,,-,,-,,,,-
ClC1=C(Cl)C=C(Cl)C=C1Cl,634-90-2,-,748,"1,2,3,5-tetrachlorobenzene",A171,10850781,-,-,-4.63,log(mol/L),4.63,-log(M),Train,,-,,-,,,,-
C=12C=CC=C3CCC(C31)=CC=C2,83-32-9,-,749,Acenaphthene,A171,10850781,-,-,-4.63,log(mol/L),4.63,-log(M),Train,,-,,-,,,,-
CCCCCC1=CC=CC=C1,538-68-1,-,750,n-pentylbenzene,A171,10850781,-,-,-4.64,log(mol/L),4.64,-log(M),Train,,-,,-,,,,-
O=C(C1=CC=CC=C1C(OCC(C)C)=O)OCC(C)C,84-69-5,-,751,diisobutyl phthalate,A171,10850781,-,-,-4.66,log(mol/L),4.66,-log(M),Train,,-,,-,,,,-
CCCCCCCCCCCCO,112-53-8,-,752,dodecanol,A171,10850781,-,-,-4.67,log(mol/L),4.67,-log(M),Train,,-,,-,,,,-
CCCCCCCCCCCC(OC)=O,111-82-0,-,753,methyl laurate,A171,10850781,-,-,-4.69,log(mol/L),4.69,-log(M),Train,,-,,-,,,,-
CC(OCCN1CCN(CC1)CCCN2C3=C(SC4=CC=C(C=C24)Cl)C=CC=C3)=O,84-06-0,-,754,thiopropazate,A171,10850781,-,-,-4.7,log(mol/L),4.7,-log(M),Train,,-,,-,,,,-
O=C(C1=CC(Cl)=CC=C1O)NC2=CC=C(N(=O)=O)C=C2Cl,50-65-7,-,755,niclosamide,A171,10850781,-,-,-4.7,log(mol/L),4.7,-log(M),Train,,-,,-,,,,-
O=C1CCC2(C)C(CCC3C2CCC4(C)C3CCC4(O)C(C)=O)=C1,68-96-2,-,756,17-a-hydroxyprogesterone,A171,10850781,-,-,-4.71,log(mol/L),4.71,-log(M),Train,,-,,-,,,,-
O=C1C=CC2(C)C(CCC3C2(F)C(O)CC4(C)C3CC(C)C4(OC(CCCC)=O)C(CO)=O)=C1,2152-44-5,-,757,betamethasone-17-valerate,A171,10850781,-,-,-4.71,log(mol/L),4.71,-log(M),Train,,-,,-,,,,-
CCCC1CCCC1,2040-96-2,-,758,n-propylcyclopentane,A171,10850781,-,-,-4.74,log(mol/L),4.74,-log(M),Train,,-,,-,,,,-
C1=CC=C2SC3=CC=CC=C3N(CC4CN(C)CCC4)C2=C1,60-89-9,-,759,mepazine,A171,10850781,-,-,-4.74,log(mol/L),4.74,-log(M),Train,,-,,-,,,,-
CC=1C=2C=CC=C(C)C2C=CC1,571-61-9,-,760,"1,5-dimethylnaphthalene",A171,10850781,-,-,-4.74,log(mol/L),4.74,-log(M),Train,,-,,-,,,,-
O=C(NC1=CC(Cl)=C(Cl)C=C1)N(C)CCCC,555-37-3,-,761,neburon,A171,10850781,-,-,-4.77,log(mol/L),4.77,-log(M),Train,,-,,-,,,,-
CCCCCCCI,4282-40-0,-,762,1-iodoheptane,A171,10850781,-,-,-4.81,log(mol/L),4.81,-log(M),Train,,-,,-,,,,-
CC1=CC=C(OC2=CC=C(C)C=C2)C=C1,28299-41-4,-,763,ditolyl ether,A171,10850781,-,-,-4.85,log(mol/L),4.85,-log(M),Train,,-,,-,,,,-
N(C(=S)SSC(N(CC)CC)=S)(CC)CC,97-77-8,-,764,disulfiram,A171,10850781,-,-,-4.86,log(mol/L),4.86,-log(M),Train,,-,,-,,,,-
ClC1=CC=CC(C2=CC=CC=C2)=C1,2051-61-8,-,765,3-chlorobiphenyl,A171,10850781,-,-,-4.88,log(mol/L),4.88,-log(M),Train,,-,,-,,,,-
O=C1C=CC2(C)C(CCC3C2(F)C(O)CC4(C)C3CC(C)C4(OC(C)=O)C(CO)=O)=C1,1177-87-3,-,766,dexamethasone-17-acetate,A171,10850781,-,-,-4.9,log(mol/L),4.9,-log(M),Train,,-,,-,,,,-
C12=CC=CC=C1CC3=C2C=CC=C3,86-73-7,-,767,Fluorene,A171,10850781,-,-,-4.91,log(mol/L),4.91,-log(M),Train,,-,,-,,,,-
ClC1=CC(C2=CC(Cl)=C(N)C=C2)=CC=C1N,91-94-1,-,768,"3,3'-DICHLOROBENZIDINE",A171,10850781,-,-,-4.92,log(mol/L),4.92,-log(M),Train,,-,,-,,,,-
CC1=CC=C(C2=C1C=CC=C2C)C,2131-41-1,-,769,"1,4,5-trimethylnaphthalene",A171,10850781,-,-,-4.92,log(mol/L),4.92,-log(M),Train,,-,,-,,,,-
CC(OC(C(C1=CC=C(Br)C=C1)(C2=CC=C(Br)C=C2)O)=O)C,18181-80-1,-,770,bromopropylate,A171,10850781,-,-,-4.93,log(mol/L),4.93,-log(M),Train,,-,,-,,,,-
CC=C(C1=CC=C(O)C=C1)C(C2=CC=C(O)C=C2)=CC,84-17-3,-,771,dienestrol,A171,10850781,-,-,-4.95,log(mol/L),4.95,-log(M),Train,,-,,-,,,,-
O=C1C=C2C(Cl)=CC3C4CCC(C(=O)C)(OC(=O)C)C4(C)CCC3C2(C)C=C1,13698-49-2,-,772,delmadinone acetate,A171,10850781,-,-,-4.95,log(mol/L),4.95,-log(M),Train,,-,,-,,,,-
C=12C=CC=CC1NC3=C2C=CC=C3,86-74-8,-,773,carbazole,A171,10850781,-,-,-4.97,log(mol/L),4.97,-log(M),Train,,-,,-,,,,-
ClC=1C2=C(N=NS2)C(Cl)=C(Cl)C1,-,-,774,"4,5,7-trichloro-2,1,3-benzothiadiazole",A171,10850781,-,-,-4.98,log(mol/L),4.98,-log(M),Train,,-,,-,,,,-
CN(C)CCCN1C2=CC(Cl)=CC=C2SC3=C1C=CC=C3,50-53-3,-,775,Chlorpromazine,A171,10850781,-,-,-5.01,log(mol/L),5.01,-log(M),Train,,-,,-,,,,-
C1=CC=C2C(=O)C(Cl)=C(NC(=O)C(Cl)Cl)C(=O)C2=C1,27541-88-4,-,776,quinonamid,A171,10850781,-,-,-5.03,log(mol/L),5.03,-log(M),Train,,-,,-,,,,-
BrC1=C(C=CC=C1Br)Br,608-21-9,-,777,"1,2,3-tribromobenzene",A171,10850781,-,-,-5.04,log(mol/L),5.04,-log(M),Train,,-,,-,,,,-
C=CCCCCCCC,124-11-8,-,778,1-Nonene,A171,10850781,-,-,-5.05,log(mol/L),5.05,-log(M),Train,,-,,-,,,,-
CCCCCCCCBr,111-83-1,-,779,1-bromooctane,A171,10850781,-,-,-5.06,log(mol/L),5.06,-log(M),Train,,-,,-,,,,-
OC(CCC(C1=CC=C(C2=CC=CC=C2)C=C1)=O)=O,36330-85-5,-,780,Fenbufen,A171,10850781,-,-,-5.06,log(mol/L),5.06,-log(M),Train,,-,,-,,,,-
COC1=CC=C(C=C1C(NCCC2=CC=C(S(=O)(NC(NC3CCCCC3)=O)=O)C=C2)=O)Cl,10238-21-8,-,781,glyburide,A171,10850781,-,-,-5.09,log(mol/L),5.09,-log(M),Train,,-,,-,,,,-
O=P(SCCCC)(SCCCC)SCCCC,78-48-8,-,782,def,A171,10850781,-,-,-5.14,log(mol/L),5.14,-log(M),Train,,-,,-,,,,-
OC1CCC2(C)C3CC(O)C4(C)C(C(C)CCC(NCC(O)=O)=O)CCC4C3C(O)CC2C1,475-31-0,-,783,glycocholic acid,A171,10850781,-,-,-5.15,log(mol/L),5.15,-log(M),Train,,-,,-,,,,-
NC1=CC=2C=C3C=CC=CC3=CC2C=C1,613-13-8,-,784,2-aminoanthracene,A171,10850781,-,-,-5.17,log(mol/L),5.17,-log(M),Train,,-,,-,,,,-
ClC1(C(Cl)=C(Cl)C(Cl)=C1Cl)Cl,77-47-4,-,785,hexachlorocyclopentadiene,A171,10850781,-,-,-5.18,log(mol/L),5.18,-log(M),Train,,-,,-,,,,-
O=C(OC(C)C)C=C(C)C=CCC(C)CCCC(OC)(C)C,40596-69-8,-,786,methoprene,A171,10850781,-,-,-5.19,log(mol/L),5.19,-log(M),Train,,-,,-,,,,-
O=C1C=2C(C(=O)C=3C1=CC=CC3)=CC=CC2,84-65-1,-,787,anthraquinone,A171,10850781,-,,-5.19,log(mol/L),5.19,-log(M),Train,,-,,-,,,,-
ClC1=CC=CC(Cl)=C1C2=CC=CC=C2,33146-45-1,-,788,"2,6-pcb",A171,10850781,-,-,-5.21,log(mol/L),5.21,-log(M),Train,,-,,-,,,,-
OC1=CC=C(OC2=C(I)C=C(CC(N)C(O)=O)C=C2I)C=C1I,-,-,789,liothyronine,A171,10850781,-,-,-5.22,log(mol/L),5.22,-log(M),Train,,-,,-,,,,-
CC1=C2CC3=CC=CC=C3C2=CC=C1,1730-37-6,-,790,1-methylfluorene,A171,10850781,-,-,-5.22,log(mol/L),5.22,-log(M),Train,,-,,-,,,,-
CCCCCCCC,111-65-9,-,791,n-octane,A171,10850781,-,-,-5.24,log(mol/L),5.24,-log(M),Train,,-,,-,,,,-
ClC1=CC(Cl)=CC=C1C2=CC=CC=C2,33284-50-3,-,792,"2,4-pcb",A171,10850781,-,-,-5.25,log(mol/L),5.25,-log(M),Train,,-,,-,,,,-
CC(C1(CCC2C3C=C(C4=CC(CCC4(C3CCC12C)C)=O)C)C)=O,977-79-7,-,793,medrogestone,A171,10850781,-,-,-5.27,log(mol/L),5.27,-log(M),Train,,-,,-,,,,-
ClC1=CC=CC=C1C2=CC=CC=C2Cl,13029-08-8,-,794,"2,2'-PCB",A171,10850781,-,-,-5.27,log(mol/L),5.27,-log(M),Train,,-,,-,,,,-
OC1=CC=2CC=C3C(CCC4(C)C3CCC4=O)C2C=C1,474-86-2,-,795,equilin,A171,10850781,-,-,-5.28,log(mol/L),5.28,-log(M),Train,,-,,-,,,,-
ClC1=CC=CC=C1C2=CC=C(Cl)C=C2,34883-43-7,-,796,"2,4'-PCB",A171,10850781,-,-,-5.28,log(mol/L),5.28,-log(M),Train,,-,,-,,,,-
CN(CCCN1C2=CC=CC=C2SC3=C1C=C(C(F)(F)F)C=C3)C,146-54-3,-,797,triflupromazine,A171,10850781,-,-,-5.3,log(mol/L),5.3,-log(M),Train,,-,,-,,,,-
C12=CC=CC=C1OC3=CC=CC=C3O2,262-12-4,-,798,dibenzo-p-dioxine,A171,10850781,-,-,-5.31,log(mol/L),5.31,-log(M),Train,,-,,-,,,,-
O=C(O)CCCCCCCCCCCCC,544-63-8,-,799,tetradecanoic acid,A171,10850781,-,-,-5.33,log(mol/L),5.33,-log(M),Train,,-,,-,,,,-
CC(OC1(C2(C)C(CC1)C3C=C(C)C4=CC(=O)CCC4(C3CC2)C)C(C)=O)=O,595-33-5,-,800,megestrol acetate,A171,10850781,-,-,-5.35,log(mol/L),5.35,-log(M),Train,,-,,-,,,,-
O=C1CCC2(C)C(CCC3C2CCC4(C)C3CCC4OC(CC)=O)=C1,57-85-2,-,801,testosterone propionate,A171,10850781,-,-,-5.37,log(mol/L),5.37,-log(M),Train,,-,,-,,,,-
O=C(OCCCCCCCC)C1=CC=C(N)C=C1,14309-41-2,-,802,octyl-4-aminobenzoate,A171,10850781,-,-,-5.4,log(mol/L),5.4,-log(M),Train,,-,,-,,,,-
N1=C(C2=NC=3C(C=C2)=CC=CC3)C=CC=4C1=CC=CC4,119-91-5,-,803,biquinoline,A171,10850781,-,,-5.4,log(mol/L),5.4,-log(M),Train,,-,,-,,,,-
O=C1N(SC(Cl)(Cl)C(Cl)Cl)C(C2CC=CCC12)=O,2939-80-2,-,804,captafol,A171,10850781,-,-,-5.4,log(mol/L),5.4,-log(M),Train,,-,,-,,,,-
CC12CCC3C(C1CCC2O)CCC4CC5SC5CC34C,2363-58-8,-,805,epitiostanol,A171,10850781,-,-,-5.41,log(mol/L),5.41,-log(M),Train,,-,,-,,,,-
ClC=1C2=C(N=CC=N2)C(Cl)=C(Cl)C1Cl,3495-42-9,-,806,chlorquinox,A171,10850781,-,-,-5.43,log(mol/L),5.43,-log(M),Train,,-,,-,,,,-
ClC1=C(OC2=CC=C(N(=O)=O)C=C2)C=CC(Cl)=C1,1836-75-5,-,807,nitrofen,A171,10850781,-,-,-5.46,log(mol/L),5.46,-log(M),Train,,-,,-,,,,-
NC1=C(C(F)(F)F)C=C(N(=O)=O)C(N(CC)CC)=C1N(=O)=O,29091-05-2,-,808,dinitramine,A171,10850781,-,-,-5.47,log(mol/L),5.47,-log(M),Train,,-,,-,,,,-
CN(C=NC1=CC=C(C)C=C1C)C=NC2=CC=C(C)C=C2C,33089-61-1,-,809,amitraz,A171,10850781,-,-,-5.47,log(mol/L),5.47,-log(M),Train,,-,,-,,,,-
C1C(=O)C=C2CCC3C4CCC(O)(C(=O)COC(=O)CC(C)(C)C)C4(C)CC(O)C3C2(C)C1,508-96-3,-,810,hydrocortisone tebutate,A171,10850781,-,-,-5.51,log(mol/L),5.51,-log(M),Train,,-,,-,,,,-
FC(F)(F)C1=CC(N(=O)=O)=C(N(CC)CCCC)C(N(=O)=O)=C1,1861-40-1,-,811,benfluralin,A171,10850781,-,-,-5.53,log(mol/L),5.53,-log(M),Train,,-,,-,,,,-
S=P(OCC)(OCC)SCSP(OCC)(OCC)=S,563-12-2,-,812,ethion,A171,10850781,-,-,-5.54,log(mol/L),5.54,-log(M),Train,,-,,-,,,,-
COC1=CC2=C(N(C(C)=C2CC(O)=O)C(C=CC3=CC=CC=C3)=O)C=C1,20168-99-4,-,813,cinmetacin,A171,10850781,-,-,-5.54,log(mol/L),5.54,-log(M),Train,,-,,-,,,,-
[Sn](C1CCCCC1)(C2CCCCC2)C3CCCCC3.O,13121-70-5,-,814,Cyhexatin,A171,10850781,-,,-5.59,log(mol/L),5.59,-log(M),Train,,-,,-,,,,-
O=C(OCC1=CC=CC=C1)C2=CC=CC=C2C(OCCCC)=O,85-68-7,-,815,benzyl butyl phthalate,A171,10850781,-,-,-5.64,log(mol/L),5.64,-log(M),Train,,-,,-,,,,-
ClC12C(Cl)=C(Cl)C(C1(Cl)Cl)(Cl)C3C2C=CC3,3734-48-3,-,816,chlordene,A171,10850781,-,-,-5.64,log(mol/L),5.64,-log(M),Train,,-,,-,,,,-
ClC1=C(Cl)C=C(Cl)C(Cl)=C1Cl,608-93-5,-,817,pentachlorobenzene,A171,10850781,-,-,-5.65,log(mol/L),5.65,-log(M),Train,,-,,-,,,,-
O=C1CCC2(C)C(CCC3C2CCC4(C)C3CCC4(C#C)O)=C1,434-03-7,-,818,ethisterone,A171,10850781,-,-,-5.66,log(mol/L),5.66,-log(M),Train,,-,,-,,,,-
CCCCCCCCCCCCCCCCCC(O)=O,57-11-4,-,819,stearic acid,A171,10850781,-,-,-5.68,log(mol/L),5.68,-log(M),Train,,-,,-,,,,-
CC(OC1=CC(N2N=C(C(C)(C)C)OC2=O)=C(C=C1Cl)Cl)C,19666-30-9,-,820,oxadiazon,A171,10850781,-,-,-5.69,log(mol/L),5.69,-log(M),Train,,-,,-,,,,-
O=C1C2(C(C3CCC4C(C3CC2)(C)CCCC4)CC1)C,36378-49-1,-,821,androstane-17-one,A171,10850781,-,-,-6.7,log(mol/L),6.7,-log(M),Train,,-,,-,,,,-
S=P(OC)(OC)OC1=CC(Cl)=C(Cl)C=C1Cl,299-84-3,-,822,ronnel,A171,10850781,-,-,-5.72,log(mol/L),5.72,-log(M),Train,,-,,-,,,,-
O=N(C1=C(Cl)C(Cl)=C(Cl)C(Cl)=C1Cl)=O,82-68-8,-,823,quintozene,A171,10850781,-,-,-5.82,log(mol/L),5.82,-log(M),Train,,-,,-,,,,-
C12=C(C=CC=C1)C=3C=CC=C4C3C2=CC=C4,206-44-0,-,824,Fluoranthene,A171,10850781,-,-,-6.0,log(mol/L),6.0,-log(M),Train,,-,,-,,,,-
ClC1=CC(C2=CC(Cl)=CC=C2Cl)=CC=C1,38444-81-4,-,825,"2,3',5-PCB",A171,10850781,-,-,-6.01,log(mol/L),6.01,-log(M),Train,,-,,-,,,,-
O=C(NC(NC1=CC=C(Cl)C=C1)=O)C2=C(F)C=CC=C2F,35367-38-5,-,826,difluron,A171,10850781,-,-,-6.02,log(mol/L),6.02,-log(M),Train,,-,,-,,,,-
CCCCCCCCCCCCCCO,112-72-1,-,827,myristyl alcohol,A171,10850781,-,-,-6.05,log(mol/L),6.05,-log(M),Train,,-,,-,,,,-
ClC1=CC(Cl)=C(C2=CC=CC=C2)C(Cl)=C1,35693-92-6,-,828,"2,4,6-pcb",A171,10850781,-,-,-6.14,log(mol/L),6.14,-log(M),Train,,-,,-,,,,-
C1=2C=CC=3C=CC=C4C=CC(=CC=C1)C2C43,129-00-0,-,829,pyrene,A171,10850781,-,-,-6.19,log(mol/L),6.19,-log(M),Train,,-,,-,,,,-
NC=1C2=C(C=CC=C2)C3=C(C1)C4=C(C=C3)C=CC=C4,2642-98-0,-,830,6-aminochrysene,A171,10850781,-,-,-6.2,log(mol/L),6.2,-log(M),Train,,-,,-,,,,-
ClC1=CC=C(Cl)C=C1C2=CC=C(Cl)C=C2,16606-02-3,-,831,"2,4',5-PCB",A171,10850781,-,-,-6.25,log(mol/L),6.25,-log(M),Train,,-,,-,,,,-
ClC1=CC=C(C2=CC=CC(Cl)=C2Cl)C=C1,38444-85-8,-,832,"2,3,4'-PCB",A171,10850781,-,-,-6.26,log(mol/L),6.26,-log(M),Train,,-,,-,,,,-
ClC1=CC(Cl)=C(Cl)C=C1C2=CC=CC=C2,15862-07-4,-,833,"2,4,5-pcb",A171,10850781,-,-,-6.27,log(mol/L),6.27,-log(M),Train,,-,,-,,,,-
ClC12C3C(C4C5OC5C3C4)C(C1(Cl)Cl)(Cl)C(Cl)=C2Cl,60-57-1,-,834,dieldrin,A171,10850781,-,-,-6.29,log(mol/L),6.29,-log(M),Train,,-,,-,,,,-
ClC1=CC=CC=C1C2=CC=C(Cl)C(Cl)=C2,38444-86-9,-,835,"2',3,4-PCB",A171,10850781,-,-,-6.29,log(mol/L),6.29,-log(M),Train,,-,,-,,,,-
S=P(OCC)(OCC)SC(CCl)N1C(C2=CC=CC=C2C1=O)=O,10311-84-9,-,836,dialifos,A171,10850781,-,-,-6.34,log(mol/L),6.34,-log(M),Train,,-,,-,,,,-
C=12C=CC=CC1C=C3C(C=CC=C3)=C2,120-12-7,-,837,Anthracene,A171,10850781,-,-,-6.35,log(mol/L),6.35,-log(M),Train,,-,,-,,,,-
ClC(Cl)=C(C1=CC=C(Cl)C=C1)C2=CC=CC=C2Cl,3424-82-6,-,838,"O,P'-DDE",A171,10850781,-,-,-6.36,log(mol/L),6.36,-log(M),Train,,-,,-,,,,-
ClC1=CC(C2=CC=CC=C2)=CC=C1Cl,2974-92-7,-,839,"3,4-pcb",A171,10850781,-,-,-6.39,log(mol/L),6.39,-log(M),Train,,-,,-,,,,-
ClC1=CC=C(Cl)C(C2=CC=CC(Cl)=C2Cl)=C1,41464-39-5,-,840,"2,2',3,5'-PCB",A171,10850781,-,-,-6.47,log(mol/L),6.47,-log(M),Train,,-,,-,,,,-
ClC(Cl)C(C1=CC=C(Cl)C=C1)C2=CC=CC=C2Cl,53-19-0,-,841,"O,P'-DDD",A171,10850781,-,-,-6.51,log(mol/L),6.51,-log(M),Train,,-,,-,,,,-
ClC1=CC=C(C2=CC=C(Cl)C=C2)C=C1,2050-68-2,-,842,"4,4'-PCB",A171,10850781,-,-,-6.56,log(mol/L),6.56,-log(M),Train,,-,,-,,,,-
ClC1=CC=C(Cl)C=C1C2=C(Cl)C=C(Cl)C=C2,41464-40-8,-,843,"2,2',4,5'-PCB",A171,10850781,-,-,-6.57,log(mol/L),6.57,-log(M),Train,,-,,-,,,,-
CC=1C2=C(C=CC=C2)C(=C3C1C=CC=C3)C,781-43-1,-,844,"9,10-dimethylanthracene",A171,10850781,-,-,-6.57,log(mol/L),6.57,-log(M),Train,,-,,-,,,,-
S=P(OC)(OC)OC1=C(Cl)C=C(I)C(Cl)=C1,18181-70-9,-,845,iodofenphos,A171,10850781,-,-,-6.62,log(mol/L),6.62,-log(M),Train,,-,,-,,,,-
C=12C=3C=CC=CC3C=CC1C4=CC=CC=C4C2,238-84-6,-,846,benzo(a)fluorene,A171,10850781,-,-,-6.68,log(mol/L),6.68,-log(M),Train,,-,,-,,,,-
C=12C=CC=CC1C=3C=CC=CC3C4=C2C=CC=C4,217-59-4,-,847,triphenylene,A171,10850781,-,-,-6.74,log(mol/L),6.74,-log(M),Train,,-,,-,,,,-