SMILES,CASRN,EXTERNALID,N,NAME,ARTICLEID,PUBMEDID,PAGE,TABLE,Solubility_log(mol/L),UNIT {Water solubility},"Water solubility {measured, converted}",UNIT {Water solubility}.1,Dataset,Temperature,UNIT {Temperature},Ionic strength,UNIT {Ionic strength},comment (chemical),source,pH,UNIT {pH}
CC(=C)C1CC=C(C)C(=O)C1,-,-,484,Carvone,A170,15154768,-,-,-2.06,log(mol/L),2.06,-log(M),,,-,,-,,,,-
OCC(O)C1OC2OC(OC2C1O)C(Cl)(Cl)Cl,-,-,485,chloralose,A170,15154768,-,-,-1.84,log(mol/L),1.84,-log(M),,,-,,-,,,,-
OCC(NC(=O)C(Cl)Cl)C(O)C1=CC=C(C=C1)N(=O)=O,-,-,486,Chloramphenicol,A170,15154768,-,-,-2.111,log(mol/L),2.111,-log(M),,,-,,-,,,,-
CCN(CC)C1=NC(Cl)=NC(=N1)N(CC)CC,-,-,487,Chlorazine,A170,15154768,-,-,-4.411,log(mol/L),4.411,-log(M),,,-,,-,,,,-
CON(C)C(=O)NC1=CC=C(Br)C(Cl)=C1,-,-,488,Chlorbromuron,A170,15154768,-,-,-3.924,log(mol/L),3.924,-log(M),,,-,,-,,,,-
CC(OC(=O)NC1=CC=CC(Cl)=C1)C#C,-,-,489,Chlorbufam,A170,15154768,-,-,-2.617,log(mol/L),2.617,-log(M),,,-,,-,,,,-
ClC1CC2C(C1Cl)C3(Cl)C(=C(Cl)C2(Cl)C3(Cl)Cl)Cl,-,-,490,chlordane,A170,15154768,-,-,-6.86,log(mol/L),6.86,-log(M),,,-,,-,,,,-
ClC1=C(Cl)C2(Cl)C3C=CCC3C1(Cl)C2(Cl)Cl,-,-,491,chlordene,A170,15154768,-,-,-5.64,log(mol/L),5.64,-log(M),,,-,,-,,,,-
CN(C)C=NC1=CC=C(Cl)C=C1C,-,-,492,chlordimeform,A170,15154768,-,-,-2.86,log(mol/L),2.86,-log(M),,,-,,-,,,,-
CCOC(=O)C1=CC=CC=C1S(=O)(=O)NN(C=O)C2=NC(Cl)=CC(OC)=N2,-,-,493,Chlorimuron-ethyl (ph 7),A170,15154768,-,-,-4.576,log(mol/L),4.576,-log(M),,,-,,-,,,,-
NC(CCl)=O,-,-,494,chloroacetamide,A170,15154768,-,-,-0.02,log(mol/L),0.02,-log(M),,,-,,-,,,,-
ClCC#N,-,-,495,Chloroacetonitrile,A170,15154768,-,-,-0.092,log(mol/L),0.092,-log(M),,,-,,-,,,,-
ClC1=CC=CC=C1,-,-,496,chlorobenzene,A170,15154768,-,-,-2.38,log(mol/L),2.38,-log(M),,,-,,-,,,,-
ClC(Br)Br,-,-,497,Chlorodibromethane,A170,15154768,-,-,-1.9,log(mol/L),1.9,-log(M),,,-,,-,,,,-
ClCC,-,-,498,Chloroethane,A170,15154768,-,-,-1.06,log(mol/L),1.06,-log(M),,,-,,-,,,,-
ClC=C,-,-,499,Chloroethylene,A170,15154768,-,-,-1.75,log(mol/L),1.75,-log(M),,,-,,-,,,,-
CC(C)OC(=O)NC1=CC=CC(Cl)=C1,-,-,500,chloropham,A170,15154768,-,-,-3.38,log(mol/L),3.38,-log(M),,,-,,-,,,,-
ClC(Cl)(Cl)N(=O)=O,-,-,501,Chloropicrin,A170,15154768,-,-,-2.0,log(mol/L),2.0,-log(M),,,-,,-,,,,-
C1=CC=C(Cl)C=C1C(C2=CC=C(Cl)C=C2)(O)C(=O)OC(C)C,-,-,502,chloropropylate,A170,15154768,-,-,-4.53,log(mol/L),4.53,-log(M),,,-,,-,,,,-
C1(C#N)=C(Cl)C(C#N)=C(Cl)C(Cl)=C1Cl,-,-,503,chlorothalonil,A170,15154768,-,-,-5.64,log(mol/L),5.64,-log(M),,,-,,-,,,,-
NS(=O)(=O)C1=CC2=C(N=CNS2(=O)=O)C=C1Cl,-,-,504,Chlorothiazide,A170,15154768,-,-,-3.05,log(mol/L),3.05,-log(M),,,-,,-,,,,-
CN(C)C(=O)NC1=CC=C(C)C(Cl)=C1,-,-,505,Chlorotoluron,A170,15154768,-,-,-3.46,log(mol/L),3.46,-log(M),,,-,,-,,,,-
CN(C)C(=O)NC1=CC=C(OC2=CC=C(Cl)C=C2)C=C1,-,-,506,chloroxuron,A170,15154768,-,-,-4.89,log(mol/L),4.89,-log(M),,,-,,-,,,,-
CCOP(=S)(OCC)OC1=NC(Cl)=C(Cl)C=C1Cl,-,-,507,chlorpyrifos,A170,15154768,-,-,-5.67,log(mol/L),5.67,-log(M),,,-,,-,,,,-
C1(Cl)=C(Cl)C(Cl)=C2N=CC=NC2=C1Cl,-,-,508,chlorquinox,A170,15154768,-,-,-5.43,log(mol/L),5.43,-log(M),,,-,,-,,,,-
NS(=O)(=O)C1=CC(=CC=C1Cl)C2(O)NC(=O)C3=CC=CC=C23,-,-,509,Chlorthalidone,A170,15154768,-,-,-3.451,log(mol/L),3.451,-log(M),,,-,,-,,,,-
CN(C)C(=O)NC1=CC=C(C)C(Cl)=C1,-,-,510,Chlortoluron,A170,15154768,-,-,-3.483,log(mol/L),3.483,-log(M),,,-,,-,,,,-
ClC1=CC=C2OC(=O)NC2=C1,-,-,511,Chlorzoxazone,A170,15154768,-,-,-2.831,log(mol/L),2.831,-log(M),,,-,,-,,,,-
C1CC=2C=3C1=CC=CC3C=C4C2C=CC=5C=CC=CC54,-,-,512,Cholanthrene,A170,15154768,-,-,-7.85,log(mol/L),7.85,-log(M),,,-,,-,,,,-
C1=CC=C2C(=C1)C=CC=3C=4C=CC=CC4C=CC23,-,-,513,Chrysene,A170,15154768,-,-,-8.057,log(mol/L),8.057,-log(M),,,-,,-,,,,-
ClC=CCl,-,-,514,"cis 1,2-Dichloroethylene",A170,15154768,-,-,-1.3,log(mol/L),1.3,-log(M),,,-,,-,,,,-
CC1CCCCC1C,-,-,515,"cis-1,2-dimethylcyclohexane",A170,15154768,-,-,-4.3,log(mol/L),4.3,-log(M),,,-,,-,,,,-
CCC=CC,-,-,516,cis-2-Pentene,A170,15154768,-,-,-2.54,log(mol/L),2.54,-log(M),,,-,,-,,,,-
CC(C)=CCCC(C)=CC=O,-,-,517,citral,A170,15154768,-,-,-2.06,log(mol/L),2.06,-log(M),,,-,,-,,,,-
CC1(C)CON(CC2=CC=CC=C2Cl)C1=O,-,-,518,Clomazone,A170,15154768,-,-,-2.338,log(mol/L),2.338,-log(M),,,-,,-,,,,-
ClC1=CC=CC=C1C2=NCC(=O)NC3=CC=C(C=C23)N(=O)=O,-,-,519,Clonazepam,A170,15154768,-,-,-3.499,log(mol/L),3.499,-log(M),,,-,,-,,,,-
C1=CC=2C=CC=3C=CC=4C=CC=5C=CC=6C=CC1=C7C2C3C4C5C67,-,-,520,Coronene,A170,15154768,-,-,-9.332,log(mol/L),9.332,-log(M),,,-,,-,,,,-
CC12CC(O)C3C(CCC4=CC(=O)CCC34C)C1CCC2C(=O)CO,-,-,521,corticosterone,A170,15154768,-,-,-3.24,log(mol/L),3.24,-log(M),,,-,,-,,,,-
CC12CC(=O)C3C(CCC4=CC(=O)CCC34C)C1CCC2(O)C(=O)CO,-,-,522,Cortisone,A170,15154768,-,-,-3.11,log(mol/L),3.11,-log(M),,,-,,-,,,,-
CC(=O)OCC(=O)C1(O)CCC2C3CCC4=CC(=O)CCC4(C)C3C(=O)CC12C,-,-,523,cortisone acetate,A170,15154768,-,-,-4.21,log(mol/L),4.21,-log(M),,,-,,-,,,,-
CC(=O)CC(C1=CC=C(Cl)C=C1)C2=C(O)C=3C=CC=CC3OC2=O,-,-,524,Coumachlor,A170,15154768,-,-,-5.839,log(mol/L),5.839,-log(M),,,-,,-,,,,-
CCOP(=S)(OCC)OC1=CC=C2OC(=O)C(Cl)=C(C)C2=C1,-,-,525,coumaphos,A170,15154768,-,-,-5.382,log(mol/L),5.382,-log(M),,,-,,-,,,,-
O=C1C(C2CCCC3=CC=CC=C32)=C(O)C=4C=CC=CC4O1,-,-,526,Coumatetralyl,A170,15154768,-,-,-2.84,log(mol/L),2.84,-log(M),,,-,,-,,,,-
CCNC1=NC(Cl)=NC(NC(C)(C)C#N)=N1,-,-,527,cyanazine,A170,15154768,-,-,-3.15,log(mol/L),3.15,-log(M),,,-,,-,,,,-
CCSC(=O)N(CC)C1CCCCC1,-,-,528,cycloate,A170,15154768,-,-,-3.4,log(mol/L),3.4,-log(M),,,-,,-,,,,-
CCC1(C(=O)NC(=O)NC1=O)C2=CCCCC2,-,-,529,cyclobarbital,A170,15154768,-,-,-2.17,log(mol/L),2.17,-log(M),,,-,,-,,,,-
O=C1NC(=O)C2(CCC2)C(=O)N1,-,-,530,Cyclobutyl-5-spirobarbituric acid,A170,15154768,-,-,-1.655,log(mol/L),1.655,-log(M),,,-,,-,,,,-
C1CCCCCC1,-,-,531,cycloheptane,A170,15154768,-,-,-3.51,log(mol/L),3.51,-log(M),,,-,,-,,,,-
OC1CCCCCC1,-,-,532,Cycloheptanol,A170,15154768,-,-,-0.88,log(mol/L),0.88,-log(M),,,-,,-,,,,-
C1CCC=CCC1,-,-,533,Cycloheptene,A170,15154768,-,-,-3.18,log(mol/L),3.18,-log(M),,,-,,-,,,,-
O=C1NC(=O)C2(CCCCCC2)C(=O)N1,-,-,534,Cycloheptyl-5-spirobarbituric acid,A170,15154768,-,-,-3.168,log(mol/L),3.168,-log(M),,,-,,-,,,,-
C1CCCCC1,-,-,535,Cyclohexane,A170,15154768,-,-,-3.1,log(mol/L),3.1,-log(M),,,-,,-,,,,-
OC1CCCCC1,-,-,536,cyclohexanol,A170,15154768,-,-,-0.44,log(mol/L),0.44,-log(M),,,-,,-,,,,-
O=C1CCCCC1,-,-,537,cyclohexanone,A170,15154768,-,-,-0.6,log(mol/L),0.6,-log(M),,,-,,-,,,,-
C1CCC=CC1,-,-,538,cyclohexene,A170,15154768,-,-,-2.59,log(mol/L),2.59,-log(M),,,-,,-,,,,-
CC1CC(C)C(=O)C(C1)C(O)CC2CC(=O)NC(=O)C2,-,-,539,cycloheximide,A170,15154768,-,-,-1.13,log(mol/L),1.13,-log(M),,,-,,-,,,,-
O=C1NC(=O)C2(CCCCC2)C(=O)N1,-,-,540,Cyclohexyl-5-spirobarbituric acid,A170,15154768,-,-,-3.06,log(mol/L),3.06,-log(M),,,-,,-,,,,-
C1CCCCCCC1,-,-,541,cyclooctane,A170,15154768,-,-,-4.15,log(mol/L),4.15,-log(M),,,-,,-,,,,-
OC1CCCCCCC1,-,-,542,Cyclooctanol,A170,15154768,-,-,-1.29,log(mol/L),1.29,-log(M),,,-,,-,,,,-
O=C1NC(=O)C2(CCCCCCC2)C(=O)N1,-,-,543,Cyclooctyl-5-spirobarbituric acid,A170,15154768,-,-,-2.982,log(mol/L),2.982,-log(M),,,-,,-,,,,-
C1CCCC1,-,-,544,cyclopentane,A170,15154768,-,-,-2.64,log(mol/L),2.64,-log(M),,,-,,-,,,,-
C1CC=CC1,-,-,545,cyclopentene,A170,15154768,-,-,-2.1,log(mol/L),2.1,-log(M),,,-,,-,,,,-
O=C1NC(=O)C2(CCCC2)C(=O)N1,-,-,546,Cyclopentyl-5-spirobarbituric acid,A170,15154768,-,-,-2.349,log(mol/L),2.349,-log(M),,,-,,-,,,,-
O=C1NC(=O)C2(CC2)C(=O)N1,-,-,547,Cyclopropyl-5-spirobarbituric acid,A170,15154768,-,-,-1.886,log(mol/L),1.886,-log(M),,,-,,-,,,,-
CN(C)C(=O)NC1CCCCCCC1,-,-,548,cycluron,A170,15154768,-,-,-2.218,log(mol/L),2.218,-log(M),,,-,,-,,,,-
CC1(C)C(C=C(Cl)Cl)C1C(=O)OC(C#N)C2=CC=C(F)C(OC3=CC=CC=C3)=C2,-,-,549,Cyfluthrin,A170,15154768,-,-,-7.337,log(mol/L),7.337,-log(M),,,-,,-,,,,-
CC1(C)C(C=C(Cl)C(F)(F)F)C1C(=O)OC(C#N)C2=CC=CC(OC3=CC=CC=C3)=C2,-,-,550,Cyhalothrin,A170,15154768,-,-,-8.176,log(mol/L),8.176,-log(M),,,-,,-,,,,-
CC1(C)C(C=C(Cl)Cl)C1C(=O)OC(C#N)C2=CC=CC(OC3=CC=CC=C3)=C2,-,-,551,Cypermethrin,A170,15154768,-,-,-8.017,log(mol/L),8.017,-log(M),,,-,,-,,,,-
NC=1C=CNC(=O)N1,-,-,552,cytosine,A170,15154768,-,-,-1.155,log(mol/L),1.155,-log(M),,,-,,-,,,,-
CC12CC=3C=NOC3C=C1CCC4C2CCC5(C)C4CCC5(O)C#C,-,-,553,Danazol,A170,15154768,-,-,-5.507,log(mol/L),5.507,-log(M),,,-,,-,,,,-
NC1=CC=C(C=C1)S(=O)(=O)C2=CC=C(N)C=C2,-,-,554,dapsone,A170,15154768,-,-,-3.094,log(mol/L),3.094,-log(M),,,-,,-,,,,-
ClC(Cl)C(C1=CC=C(Cl)C=C1)C2=CC=C(Cl)C=C2,-,-,555,DDD,A170,15154768,-,,-7.2,log(mol/L),7.2,-log(M),,,-,,-,,,,-
ClC(Cl)=C(C1=CC=C(Cl)C=C1)C2=CC=C(Cl)C=C2,-,-,556,DDE,A170,15154768,-,,-6.9,log(mol/L),6.9,-log(M),,,-,,-,,,,-
ClC1=CC=C(C=C1)C(C2=CC=C(Cl)C=C2)C(Cl)(Cl)Cl,-,-,557,DDT,A170,15154768,-,-,-7.15,log(mol/L),7.15,-log(M),,,-,,-,,,,-
C1CCC2CCCCC2C1,-,-,558,Decalin,A170,15154768,-,-,-5.19,log(mol/L),5.19,-log(M),,,-,,-,,,,-
CCCCSP(=O)(SCCCC)SCCCC,-,-,559,def,A170,15154768,-,-,-5.14,log(mol/L),5.14,-log(M),,,-,,-,,,,-
CC1(C)C(C=C(Br)Br)C1C(=O)OC(C#N)C2=CC=CC(OC3=CC=CC=C3)=C2,-,-,560,Deltamethrin,A170,15154768,-,-,-8.402,log(mol/L),8.402,-log(M),,,-,,-,,,,-
CC12CCC3C(CCC4=CC(=O)CCC34C)C1CCC2C(=O)CO,-,-,561,deoxycorticosterone,A170,15154768,-,-,-3.45,log(mol/L),3.45,-log(M),,,-,,-,,,,-
CC(=O)OCC(=O)C1CCC2C3CCC4=CC(=O)CCC4(C)C3CCC12C,-,-,562,deoxycorticosterone acetate,A170,15154768,-,-,-4.63,log(mol/L),4.63,-log(M),,,-,,-,,,,-
CCOC(=O)NC1=CC=CC(OC(=O)NC2=CC=CC=C2)=C1,-,-,563,Desmedipham,A170,15154768,-,-,-4.632,log(mol/L),4.632,-log(M),,,-,,-,,,,-
CC1CC2C3CCC4=CC(=O)C=CC4(C)C3(F)C(O)CC2(C)C1(O)C(=O)CO,-,-,564,Dexamethasone,A170,15154768,-,-,-3.59,log(mol/L),3.59,-log(M),,,-,,-,,,,-
CC1CC2C3CCC4=CC(=O)C=CC4(C)C3(F)C(O)CC2(C)C1(O)C(=O)COC(C)=O,-,-,565,dexamethasone acetate,A170,15154768,-,-,-4.9,log(mol/L),4.9,-log(M),,,-,,-,,,,-
CC1(C)C2CCC(C)(C2)C1=O,-,-,566,d-fenchone,A170,15154768,-,-,-1.85,log(mol/L),1.85,-log(M),,,-,,-,,,,-
CCCCC(CC)COC(=O)C1=CC=CC=C1C(=O)OCC(CC)CCCC,-,-,567,Di(2-ethylhexyl)-phthalate,A170,15154768,-,-,-6.96,log(mol/L),6.96,-log(M),,,-,,-,,,,-
CCOP(=S)(OCC)SC(CCl)N1C(=O)C2=CC=CC=C2C1=O,-,-,568,Dialifor,A170,15154768,-,,-6.34,log(mol/L),6.34,-log(M),,,-,,-,,,,-
CC(C)N(C(C)C)C(=O)SCC(=CCl)Cl,-,-,570,diallate,A170,15154768,-,-,-4.286,log(mol/L),4.286,-log(M),,,-,,-,,,,-
CN1C(=O)CN=C(C2=CC=CC=C2)C3=CC(Cl)=CC=C13,-,-,571,Diazepam,A170,15154768,-,-,-3.754,log(mol/L),3.754,-log(M),,,-,,-,,,,-
CCOP(=S)(OCC)OC1=CC(C)=NC(=N1)C(C)C,-,-,572,diazinon,A170,15154768,-,-,-3.64,log(mol/L),3.64,-log(M),,,-,,-,,,,-
O1C=2C=CC=CC2C=3C=CC=CC13,-,-,573,Dibenzofurane,A170,15154768,-,-,-4.6,log(mol/L),4.6,-log(M),,,-,,-,,,,-
C1=CC=C2C(=C1)SC=3C=CC=CC23,-,-,574,dibenzothiophene,A170,15154768,-,-,-4.38,log(mol/L),4.38,-log(M),,,-,,-,,,,-
BrCBr,-,-,575,dibromomethane,A170,15154768,-,-,-1.17,log(mol/L),1.17,-log(M),,,-,,-,,,,-
CCCCOCCCC,-,-,576,dibutyl ether,A170,15154768,-,-,-1.85,log(mol/L),1.85,-log(M),,,-,,-,,,,-
CCCCOC(=O)CCCCCCCCC(=O)OCCCC,-,-,577,dibutyl sebacate,A170,15154768,-,-,-3.896,log(mol/L),3.896,-log(M),,,-,,-,,,,-
CCCCOC(=O)C1=CC=CC=C1C(=O)OCCCC,-,-,578,dibutylphthalate,A170,15154768,-,-,-4.4,log(mol/L),4.4,-log(M),,,-,,-,,,,-
COP(=S)(OC)OC1=CC=C(C=C1Cl)N(=O)=O,-,-,579,Dicapthon,A170,15154768,-,-,-4.31,log(mol/L),4.31,-log(M),,,-,,-,,,,-
ClCCl,-,-,580,Dichloromethane,A170,15154768,-,-,-0.63,log(mol/L),0.63,-log(M),,,-,,-,,,,-
OC1=CC=C(Cl)C=C1CC2=CC(Cl)=CC=C2O,-,-,581,Dichlorophen,A170,15154768,-,-,-3.953,log(mol/L),3.953,-log(M),,,-,,-,,,,-
OC(C1=CC=C(Cl)C=C1)(C2=CC=C(Cl)C=C2)C(Cl)(Cl)Cl,-,-,582,Dicofol,A170,15154768,-,-,-5.666,log(mol/L),5.666,-log(M),,,-,,-,,,,-
ClC1=C(Cl)C2(Cl)C3C4CC(C5OC45)C3C1(Cl)C2(Cl)Cl,-,-,583,dieldrin,A170,15154768,-,-,-6.29,log(mol/L),6.29,-log(M),,,-,,-,,,,-
CC=C(C(=CC)C1=CC=C(O)C=C1)C2=CC=C(O)C=C2,-,-,584,dienestrol,A170,15154768,-,-,-4.95,log(mol/L),4.95,-log(M),,,-,,-,,,,-
ClC1=C(Cl)C(Cl)(C(=C1Cl)Cl)C2(Cl)C(=C(Cl)C(=C2Cl)Cl)Cl,-,-,585,Dienochlor,A170,15154768,-,-,-7.278,log(mol/L),7.278,-log(M),,,-,,-,,,,-
CCOCC,-,-,586,Diethyl ether,A170,15154768,-,-,-0.09,log(mol/L),0.09,-log(M),,,-,,-,,,,-
CCOC(=O)C1=CC=CC=C1C(=O)OCC,-,-,587,diethyl phthalate,A170,15154768,-,-,-2.35,log(mol/L),2.35,-log(M),,,-,,-,,,,-
CCSCC,-,-,588,Diethyl sulfide,A170,15154768,-,-,-1.34,log(mol/L),1.34,-log(M),,,-,,-,,,,-
CCSSCC,-,-,589,Diethyldisulfide,A170,15154768,-,-,-2.42,log(mol/L),2.42,-log(M),,,-,,-,,,,-
CCC(=C(CC)C1=CC=C(O)C=C1)C2=CC=C(O)C=C2,-,-,590,Diethylstilbestrol,A170,15154768,-,-,-4.07,log(mol/L),4.07,-log(M),,,-,,-,,,,-
COC1=CC=C(OC2=CC=C(NC(=O)N(C)C)C=C2)C=C1,-,-,591,difenoxuron,A170,15154768,-,-,-4.16,log(mol/L),4.16,-log(M),,,-,,-,,,,-
FC1=CC=CC(F)=C1C(=O)NC(=O)NC2=CC=C(Cl)C=C2,-,-,592,difluron,A170,15154768,-,-,-6.02,log(mol/L),6.02,-log(M),,,-,,-,,,,-
CC1OC(CC(O)C1O)OC2C(O)CC(OC2C)OC3C(O)CC(OC4CCC5(C)C(CCC6C5CC(O)C7(C)C(CCC67O)C8=CC(=O)OC8)C4)OC3C,-,-,594,"Digoxin (L1=41,8mg/mL, L2=68,2mg/mL, Z=40,1mg/mL)",A170,15154768,-,-,-4.081,log(mol/L),4.081,-log(M),,,-,,-,,,,-
CCCCCCOC(=O)C1=CC=CC=C1C(=O)OCCCCCC,-,-,595,Dihexyl phthalate,A170,15154768,-,-,-6.144,log(mol/L),6.144,-log(M),,,-,,-,,,,-
ICI,-,-,596,Diiodomethane,A170,15154768,-,-,-2.34,log(mol/L),2.34,-log(M),,,-,,-,,,,-
C1(C(=O)OCCCCCC(C)C)=C(C(=O)OCCCCCC(C)C)C=CC=C1,-,-,597,diisooctyl phthalate,A170,15154768,-,-,-6.637,log(mol/L),6.637,-log(M),,,-,,-,,,,-
CC(C)OC(C)C,-,-,598,diisopropyl ether,A170,15154768,-,-,-1.1,log(mol/L),1.1,-log(M),,,-,,-,,,,-
CC(C)SC(C)C,-,-,599,Diisopropylsulfide,A170,15154768,-,-,-2.24,log(mol/L),2.24,-log(M),,,-,,-,,,,-
CCN(CC)C(=O)C(=CCOP(=O)(OC)OC)Cl,-,-,600,Dimecron,A170,15154768,-,-,0.523,log(mol/L),-0.523,-log(M),,,-,,-,,,,-
CN(C)C(=O)NC1=CC=C(C(Cl)=C1)N2N=C(OC2=O)C(C)(C)C,-,-,601,Dimefuron,A170,15154768,-,-,-4.328,log(mol/L),4.328,-log(M),,,-,,-,,,,-
CN(C)C(=O)OC1=CC(=O)CC(C)(C)C1,-,-,602,dimetan,A170,15154768,-,-,-0.85,log(mol/L),0.85,-log(M),,,-,,-,,,,-
CCCCC1=C(C)N=C(N=C1O)N(C)C,-,-,603,dimethirimol,A170,15154768,-,-,-2.24,log(mol/L),2.24,-log(M),,,-,,-,,,,-
COCOC,-,-,604,dimethoxymethane,A170,15154768,-,-,0.48,log(mol/L),-0.48,-log(M),,,-,,-,,,,-
COC(=O)C1=CC=CC=C1C(=O)OC,-,-,605,dimethyl phthalate,A170,15154768,-,-,-1.66,log(mol/L),1.66,-log(M),,,-,,-,,,,-
CSC,-,-,606,Dimethyl sulfide,A170,15154768,-,-,-0.45,log(mol/L),0.45,-log(M),,,-,,-,,,,-
CSSC,-,-,607,dimethyldisulfide,A170,15154768,-,-,-1.44,log(mol/L),1.44,-log(M),,,-,,-,,,,-
CCN(CC)C1=C(C=C(C(N)=C1N(=O)=O)C(F)(F)F)N(=O)=O,-,-,608,dinitramine,A170,15154768,-,-,-5.47,log(mol/L),5.47,-log(M),,,-,,-,,,,-
CCC(C)C1=CC(=CC(N(=O)=O)=C1O)N(=O)=O,-,-,609,dinoseb,A170,15154768,-,-,-3.38,log(mol/L),3.38,-log(M),,,-,,-,,,,-
OC1C(O)C(O)C(O)C(O)C1O,-,-,610,d-inositol,A170,15154768,-,-,0.35,log(mol/L),-0.35,-log(M),,,-,,-,,,,-
CCCSCCC,-,-,611,Di-n-propylsulfide,A170,15154768,-,-,-2.58,log(mol/L),2.58,-log(M),,,-,,-,,,,-
O(CCCCCCCC)C(=O)C=1C(C(OCCCCCCCC)=O)=CC=CC1,-,-,612,dioctyl phthalate,A170,15154768,-,,-5.115,log(mol/L),5.115,-log(M),,,-,,-,,,,-
C1C(O)CCC2(C)CC3CCC4(C)C5(C)CC6OCC(C)CC6OC5CC4C3C=C21,-,-,613,diosgenin,A170,15154768,-,-,-7.32,log(mol/L),7.32,-log(M),,,-,,-,,,,-
CNC(=O)OC1=CC=CC=C1C2OCCO2,-,-,614,dioxacarb,A170,15154768,-,-,-1.57,log(mol/L),1.57,-log(M),,,-,,-,,,,-
CN(C)C(=O)C(C1=CC=CC=C1)C2=CC=CC=C2,-,-,615,diphenamid,A170,15154768,-,-,-2.98,log(mol/L),2.98,-log(M),,,-,,-,,,,-
O(C1=CC=CC=C1)C2=CC=CC=C2,-,-,616,diphenyl ether,A170,15154768,-,-,-3.96,log(mol/L),3.96,-log(M),,,-,,-,,,,-
N(C1=CC=CC=C1)C2=CC=CC=C2,-,-,617,diphenylamine,A170,15154768,-,-,-3.504,log(mol/L),3.504,-log(M),,,-,,-,,,,-
C(C1=CC=CC=C1)C2=CC=CC=C2,-,-,618,diphenylmethane,A170,15154768,-,-,-4.08,log(mol/L),4.08,-log(M),,,-,,-,,,,-
CCCOCCC,-,-,619,dipropyl ether,A170,15154768,-,-,-1.62,log(mol/L),1.62,-log(M),,,-,,-,,,,-
CCN(CC)C(=S)SSC(=S)N(CC)CC,-,-,620,disulfiram,A170,15154768,-,-,-4.86,log(mol/L),4.86,-log(M),,,-,,-,,,,-
CCOP(=S)(OCC)SCCSCC,-,-,621,disulfoton,A170,15154768,-,-,-4.23,log(mol/L),4.23,-log(M),,,-,,-,,,,-
CCOP(=S)(OCC)N1C(=O)C2=CC=CC=C2C1=O,-,-,622,ditalimfos,A170,15154768,-,-,-3.35,log(mol/L),3.35,-log(M),,,-,,-,,,,-
CN(C)C(=O)NC1=CC=C(Cl)C(Cl)=C1,-,-,623,diuron,A170,15154768,-,-,-3.8,log(mol/L),3.8,-log(M),,,-,,-,,,,-
CC1=CCC(C(C)=C)CC1,-,-,624,d-limonene,A170,15154768,-,-,-4.26,log(mol/L),4.26,-log(M),,,-,,-,,,,-
CC1=CC(=CC(N(=O)=O)=C1O)N(=O)=O,-,-,625,DNOC,A170,15154768,-,-,-1.456,log(mol/L),1.456,-log(M),,,-,,-,,,,-
CCOC1=CC=C(NC(N)=O)C=C1,-,-,626,dulcin,A170,15154768,-,-,-2.17,log(mol/L),2.17,-log(M),,,-,,-,,,,-
CN1C(=O)N(C)C=2N=CN(CC(O)CO)C2C1=O,-,-,627,dyphylline,A170,15154768,-,-,-0.17,log(mol/L),0.17,-log(M),,,-,,-,,,,-
CCCCCCCCCCCCCCCCCCCC,-,-,628,Eicosane,A170,15154768,-,-,-8.172,log(mol/L),8.172,-log(M),,,-,,-,,,,-
ClC1=C(Cl)C2(Cl)C3C4CC(C5OC45)C3C1(Cl)C2(Cl)Cl,-,-,629,endrin,A170,15154768,-,-,-6.18,log(mol/L),6.18,-log(M),,,-,,-,,,,-
CC12CCC3C(CCC4CC(O)CCC34C)C1CCC2=O,-,-,630,epiandrosterone,A170,15154768,-,-,-4.16,log(mol/L),4.16,-log(M),,,-,,-,,,,-
CC12CCC3C(CCC4CC5SC5CC34C)C1CCC2O,-,-,631,Epitostanol,A170,15154768,-,-,-5.41,log(mol/L),5.41,-log(M),,,-,,-,,,,-
CC12CCC3=C(C=CC=4C=C(O)C=CC34)C1CCC2=O,-,-,632,equilenin,A170,15154768,-,-,-5.24,log(mol/L),5.24,-log(M),,,-,,-,,,,-
CC12CCC3C(=CCC4=CC(O)=CC=C34)C1CCC2=O,-,-,633,equilin,A170,15154768,-,-,-5.282,log(mol/L),5.282,-log(M),,,-,,-,,,,-
OC1=CC(O)=C2C(=O)CC(OC2=C1)C3=CC=C(O)C(O)=C3,-,-,634,eriodictyol,A170,15154768,-,-,-3.62,log(mol/L),3.62,-log(M),,,-,,-,,,,-
OCC(O)C(O)CO,-,-,635,erythritol,A170,15154768,-,-,0.7,log(mol/L),-0.7,-log(M),,,-,,-,,,,-
CC12CCC3C(CCC4=CC(O)=CC=C34)C1CCC2O,-,-,636,Estradiol,A170,15154768,-,-,-5.03,log(mol/L),5.03,-log(M),,,-,,-,,,,-
C1(OC)=CC=C(CC=C)C=C1,-,-,637,estragole,A170,15154768,-,-,-2.92,log(mol/L),2.92,-log(M),,,-,,-,,,,-
CC12CCC3C(CCC4=CC(O)=CC=C34)C1CC(O)C2O,-,-,638,Estriol,A170,15154768,-,-,-4.955,log(mol/L),4.955,-log(M),,,-,,-,,,,-
CC12CCC3C(CCC4=CC(O)=CC=C34)C1CCC2=O,-,-,639,estrone,A170,15154768,-,-,-3.955,log(mol/L),3.955,-log(M),,,-,,-,,,,-
CCN(CC(C)=C)C1=C(C=C(C=C1N(=O)=O)C(F)(F)F)N(=O)=O,-,-,640,Ethalfluralin,A170,15154768,-,-,-6.124,log(mol/L),6.124,-log(M),,,-,,-,,,,-
C(C([H])([H])[H])([H])([H])[H],-,-,641,Ethane,A170,15154768,-,-,-1.36,log(mol/L),1.36,-log(M),,,-,,-,,,,-
CCS,-,-,642,ethanethiol,A170,15154768,-,-,-0.6,log(mol/L),0.6,-log(M),,,-,,-,,,,-
CCO,-,-,643,Ethanol,A170,15154768,-,-,1.1,log(mol/L),-1.1,-log(M),,,-,,-,,,,-
CC12CCC3C(CCC4=CC(O)=CC=C34)C1CCC2(O)C#C,-,-,644,ethinyl estradiol,A170,15154768,-,-,-4.3,log(mol/L),4.3,-log(M),,,-,,-,,,,-
CCSCC1=CC=CC=C1OC(=O)NC,-,-,645,ethiofencarb,A170,15154768,-,-,-2.09,log(mol/L),2.09,-log(M),,,-,,-,,,,-
CCOP(=S)(OCC)SCSP(=S)(OCC)OCC,-,-,646,ethion,A170,15154768,-,-,-5.54,log(mol/L),5.54,-log(M),,,-,,-,,,,-
CCCCC1=C(C)N=C(NCC)NC1=O,-,-,647,Ethirimol,A170,15154768,-,-,-3.028,log(mol/L),3.028,-log(M),,,-,,-,,,,-
CC12CCC(=O)C=C1CCC3C2CCC4(C)C3CCC4(O)C#C,-,-,648,ethisterone,A170,15154768,-,-,-5.66,log(mol/L),5.66,-log(M),,,-,,-,,,,-
CCOC1OC2=CC=C(OS(C)(=O)=O)C=C2C1(C)C,-,-,649,ethofumesate,A170,15154768,-,,-3.42,log(mol/L),3.42,-log(M),,,-,,-,,,,-
CCOC1=CC=C2N=C(S(N)(=O)=O)SC2=C1,-,-,651,ethoxyzolamide,A170,15154768,-,-,-3.81,log(mol/L),3.81,-log(M),,,-,,-,,,,-
CCOC(=O)C,-,-,652,Ethyl acetate,A170,15154768,-,-,-0.04,log(mol/L),0.04,-log(M),,,-,,-,,,,-
CCOC(=O)C1=CC=CC=C1,-,-,653,ethyl benzoate,A170,15154768,-,-,-2.32,log(mol/L),2.32,-log(M),,,-,,-,,,,-
CCCCCOC(=O)CC,-,-,654,ethyl butyrate,A170,15154768,-,-,-1.28,log(mol/L),1.28,-log(M),,,-,,-,,,,-
CCOC(=O)C=CC1=CC=CC=C1,-,-,655,ethyl cinnamate,A170,15154768,-,-,-3.0,log(mol/L),3.0,-log(M),,,-,,-,,,,-
CCCCCCCCCC(OCC)=O,-,-,656,Ethyl decanoate,A170,15154768,-,-,-4.1,log(mol/L),4.1,-log(M),,,-,,-,,,,-
CCOC=O,-,-,657,Ethyl formate,A170,15154768,-,-,0.15,log(mol/L),-0.15,-log(M),,,-,,-,,,,-
CCCCCCC(OCC)=O,-,-,658,Ethyl heptanoate,A170,15154768,-,-,-2.74,log(mol/L),2.74,-log(M),,,-,,-,,,,-
C(CCCCC)(=O)OCC,-,-,659,Ethyl hexanoate,A170,15154768,-,-,-2.35,log(mol/L),2.35,-log(M),,,-,,-,,,,-
CCCCCCCCC(=O)OCC,-,-,660,ethyl nonanoate,A170,15154768,-,-,-3.8,log(mol/L),3.8,-log(M),,,-,,-,,,,-
CCCCCCCC(=O)OCC,-,-,661,Ethyl octanoate,A170,15154768,-,-,-3.39,log(mol/L),3.39,-log(M),,,-,,-,,,,-
CCCOC(=O)CCC,-,-,662,Ethyl pentanoate,A170,15154768,-,-,-1.75,log(mol/L),1.75,-log(M),,,-,,-,,,,-