SMILES,CASRN,EXTERNALID,N,NAME,ARTICLEID,PUBMEDID,PAGE,TABLE,Solubility_log(mol/L),UNIT {Water solubility},"Water solubility {measured, converted}",UNIT {Water solubility}.1,Dataset,Temperature,UNIT {Temperature},Ionic strength,UNIT {Ionic strength},comment (chemical),source,pH,UNIT {pH}
CC(NC1=CC(C)=CC=C1)=O,537-92-8,-,359,3-methylacetanilide,A64,11749573,-,-,-2.09,log(mol/L),2.09,-log(M),Train,,-,,-,,,,-
O=C(N(C)C)OC1=CC(C)=NN1C2=CC=CC=C2,87-47-8,-,360,pyrolan,A64,11749573,-,-,-2.09,log(mol/L),2.09,-log(M),Train,,-,,-,,,,-
CC(I)C,75-30-9,-,361,2-iodopropane,A64,11749573,-,-,-2.09,log(mol/L),2.09,-log(M),Train,,-,,-,,,,-
C=CCC=C,591-93-5,-,362,"1,4-pentadiene",A64,11749573,-,-,-2.09,log(mol/L),2.09,-log(M),Train,,-,,-,,,,-
CC(O)CCCCCC,123-96-6,-,363,2-octanol,A64,11749573,-,-,-2.09,log(mol/L),2.09,-log(M),Train,,-,,-,,,,-
O=C1CC2OCC=C3C4CC5C6(C(N1C7=C6C=C(OC)C(OC)=C7)C24)CCN5C3,357-57-3,-,364,brucine,A64,11749573,-,-,-2.09,log(mol/L),2.09,-log(M),Train,,-,,-,,,,-
OCC1=C(Cl)C=CC=C1Cl,15258-73-8,-,365,"2,6-dichlorobenzyl alcohol",A64,11749573,-,-,-2.1,log(mol/L),2.1,-log(M),Train,,-,,-,,,,-
OCC(CC)CCCC,104-76-7,-,366,2-ethyl-1-hexanol,A64,11749573,-,-,-2.11,log(mol/L),2.11,-log(M),Train,,-,,-,,,,-
OC(C1=CC=CC=C1C(O)=O)=O,88-99-3,-,367,o-phthalic acid,A64,11749573,-,-,-2.11,log(mol/L),2.11,-log(M),Train,,-,,-,,,,-
O(C1CC2N(C(CC2)C1)C)C(=O)C(C3=CC=CC=C3)CO,51-55-8,-,368,Atropine,A64,11749573,-,,-2.12,log(mol/L),2.12,-log(M),Train,,-,,-,,,,-
SC1=CC=CC=C1,108-98-5,-,369,thiophenol,A64,11749573,-,-,-2.12,log(mol/L),2.12,-log(M),Train,,-,,-,,,,-
NC1=NC=NC2=C1N=CN2,73-24-5,-,370,adenine,A64,11749573,-,-,-2.12,log(mol/L),2.12,-log(M),Train,,-,,-,,,,-
CN1CN(C)CSC1=S,533-74-4,-,371,dazomet,A64,11749573,-,-,-2.13,log(mol/L),2.13,-log(M),Train,,-,,-,,,,-
O=C(C1=CC(C)=CC=C1)O,99-04-7,-,372,m-toluic acid,A64,11749573,-,-,-2.14,log(mol/L),2.14,-log(M),Train,,-,,-,,,,-
C1=CC=C2C=CC(=O)NC2=C1,59-31-4,-,373,2-(1h)quinolinone,A64,11749573,-,-,-2.14,log(mol/L),2.14,-log(M),Train,,-,,-,,,,-
O=C1NCCN1C(NCC(C)C)=O,30979-48-7,-,374,isocarbamid,A64,11749573,-,-,-2.15,log(mol/L),2.15,-log(M),Train,,-,,-,,,,-
C1=CC=CC=CC1,544-25-2,-,375,cycloheptatriene,A64,11749573,-,-,-2.15,log(mol/L),2.15,-log(M),Train,,-,,-,,,,-
O=C(O)COC1=CC=CC=C1Cl,614-61-9,-,376,2-chlorophenoxyacetic acid,A64,11749573,-,-,-2.16,log(mol/L),2.16,-log(M),Train,,-,,-,,,,-
OC1=CC=C2C(=C1)C=CC=N2,580-16-5,-,377,6-hydroxyquinoline,A64,11749573,-,-,-2.16,log(mol/L),2.16,-log(M),Train,,-,,-,,,,-
O=C1NC(C(C(N1)=O)(C2=CCCCC2)CC)=O,52-31-3,-,378,cyclobarbital,A64,11749573,-,-,-2.17,log(mol/L),2.17,-log(M),Train,,-,,-,,,,-
NC(NC1=CC=C(OCC)C=C1)=O,150-69-6,-,379,dulcin,A64,11749573,-,-,-2.17,log(mol/L),2.17,-log(M),Train,,-,,-,,,,-
O=C1NC(C(C(N1)=O)(C2=CC=CC=C2)CC=C)=O,115-43-5,-,380,phenallymal,A64,11749573,-,-,-2.18,log(mol/L),2.18,-log(M),Train,,-,,-,,,,-
O=S(NC(NCCCC)=O)(C1=CC=C(C=C1)N)=O,339-43-5,-,381,carbutamide,A64,11749573,-,-,-2.18,log(mol/L),2.18,-log(M),Train,,-,,-,,,,-
ClC(Cl)(Cl)CCl,630-20-6,-,382,"1,1,1,2-tetrachloroethane",A64,11749573,-,-,-2.18,log(mol/L),2.18,-log(M),Train,,-,,-,,,,-
O=N(C1=CC=C(C=NO)O1)=O,-,-,383,Nifuroxime,A64,11749573,-,-,-2.19,log(mol/L),2.19,-log(M),Train,,-,,-,,,,-
NC1=CC=CC(N(=O)=O)=C1,99-09-2,-,384,3-nitroaniline,A64,11749573,-,-,-2.19,log(mol/L),2.19,-log(M),Train,,-,,-,,,,-
O=C1NC(C(C(N1)=O)(C(C)C)CC)=O,76-76-6,-,385,probarbital,A64,11749573,-,-,-2.21,log(mol/L),2.21,-log(M),Train,,-,,-,,,,-
C1(=C(C(=C(C(=C1[H])[H])[H])[H])[H])C([H])([H])[H],108-88-3,-,386,Toluene,A64,11749573,-,-,-2.21,log(mol/L),2.21,-log(M),Train,,-,,-,,,,-
OC(C1=CC=CC=C1)(C2=CC=CC=C2)C(O)=O,76-93-7,-,387,benzilic acid,A64,11749573,-,-,-2.21,log(mol/L),2.21,-log(M),Train,,-,,-,,,,-
OC1=CC=CC=2C=CC=CC21,90-15-3,-,388,1-naphthol,A64,11749573,-,-,-2.22,log(mol/L),2.22,-log(M),Train,,-,,-,,,,-
CC1=CC(O)=C(C(C)C)C=C1,89-83-8,-,389,thymol,A64,11749573,-,-,-2.22,log(mol/L),2.22,-log(M),Train,,-,,-,,,,-
OC(C(C)OC1=CC=CC=C1Cl)=O,76466-16-5,-,390,dl-2-(2-chlorophenoxy)propionic acid,A64,11749573,-,-,-2.22,log(mol/L),2.22,-log(M),Train,,-,,-,,,,-
O=N(OCC(ON(=O)=O)CON(=O)=O)=O,55-63-0,-,391,nitroglycerin,A64,11749573,-,-,-2.22,log(mol/L),2.22,-log(M),Train,,-,,-,,,,-
O=C1N(C)C(C(C(N1)=O)(CC)CC)=O,50-11-3,-,392,metharbital,A64,11749573,-,-,-2.23,log(mol/L),2.23,-log(M),Train,,-,,-,,,,-
O=C(O)COC1=CC=C(Cl)C=C1C,94-74-6,-,393,(4-chloro-2-methylphenoxy)acetic acid,A64,11749573,-,-,-2.23,log(mol/L),2.23,-log(M),Train,,-,,-,,,,-
CCCCC1=C(O)N=C(N(C)C)N=C1C,5221-53-4,-,394,dimethirimol,A64,11749573,-,-,-2.24,log(mol/L),2.24,-log(M),Train,,-,,-,,,,-
CC1=CC(NS(=O)(C2=CC=C(C=C2)N)=O)=NC(C)=N1,515-64-0,-,395,sulfisomidine,A64,11749573,-,-,-2.24,log(mol/L),2.24,-log(M),Train,,-,,-,,,,-
CC(NC1=CC=CC=C1O)=O,614-80-2,-,396,2-hydroxyacetanilide,A64,11749573,-,-,-2.24,log(mol/L),2.24,-log(M),Train,,-,,-,,,,-
S=C1NC=CC(N1)=O,141-90-2,-,397,2-thiouracil,A64,11749573,-,-,-2.26,log(mol/L),2.26,-log(M),Train,,-,,-,,,,-
OC1=CC=2C=CC=CC2C=C1,135-19-3,-,398,2-naphthol,A64,11749573,-,-,-2.28,log(mol/L),2.28,-log(M),Train,,-,,-,,,,-
O=C1NC(=O)NC(C1N(=O)=O)=O,28176-10-5,-,399,5-nitrobarbituric acid,A64,11749573,-,-,-2.28,log(mol/L),2.28,-log(M),Train,,-,,-,,,,-
ICCC,107-08-4,-,400,1-iodopropane,A64,11749573,-,-,-2.29,log(mol/L),2.29,-log(M),Train,,-,,-,,,,-
CCCCCCCC(O)=O,124-07-2,-,401,caprylic acid,A64,11749573,-,-,-2.3,log(mol/L),2.3,-log(M),Train,,-,,-,,,,-
S=P(OCC)(OCC)OC1=CC=C(S(C)=O)C=C1,115-90-2,-,402,fensulfothion,A64,11749573,-,-,-2.3,log(mol/L),2.3,-log(M),Train,,-,,-,,,,-
FC1=C(F)C(F)=CC(F)=C1,2367-82-0,-,403,"1,2,3,5-tetrafluorobenzene",A64,11749573,-,-,-2.31,log(mol/L),2.31,-log(M),Train,,-,,-,,,,-
ClC(Cl)(Cl)Cl,56-23-5,-,404,Tetrachloromethane,A64,11749573,-,-,-2.31,log(mol/L),2.31,-log(M),Train,,-,,-,,,,-
O=C(OCC)C1=CC=CC=C1,93-89-0,-,405,ethyl benzoate,A64,11749573,-,-,-2.32,log(mol/L),2.32,-log(M),Train,,-,,-,,,,-
CC1(C)C2CCC1(C)C(O)C2,507-70-0,-,406,borneol,A64,11749573,-,-,-2.32,log(mol/L),2.32,-log(M),Train,,-,,-,,,,-
NC1=CC=C(S(=O)(NC2=CC=NN2C3=CC=CC=C3)=O)C=C1,526-08-9,-,407,sulfaphenazole,A64,11749573,-,-,-2.32,log(mol/L),2.32,-log(M),Train,,-,,-,,,,-
O=C(C1=CC=C(C=C1)N)OCCC,94-12-2,-,408,risocaine,A64,11749573,-,-,-2.33,log(mol/L),2.33,-log(M),Train,,-,,-,,,,-
O=C(NN)NC1=CC=CC=C1,537-47-3,-,409,4-phenylsemicarbazide,A64,11749573,-,-,-2.33,log(mol/L),2.33,-log(M),Train,,-,,-,,,,-
OC1=C(C=CC=C1)C(OC)=O,119-36-8,-,410,methyl salicylate,A64,11749573,-,-,-2.34,log(mol/L),2.34,-log(M),Train,,-,,-,,,,-
OC1=C(Cl)C=C(Cl)C=C1Cl,88-06-2,-,411,"2,4,6-trichlorophenol",A64,11749573,-,-,-2.34,log(mol/L),2.34,-log(M),Train,,-,,-,,,,-
CCC1(CCC(=O)NC1=O)C2=CC=CC=C2,77-21-4,-,412,glutethimide,A64,11749573,-,-,-2.34,log(mol/L),2.34,-log(M),Train,,-,,-,,,,-
NC1=C(CC)C=CC=C1CC,579-66-8,-,413,"2,6-diethylaniline",A64,11749573,-,-,-2.35,log(mol/L),2.35,-log(M),Train,,-,,-,,,,-
O=C(OCC)C1=CC=CC=C1C(OCC)=O,84-66-2,-,414,diethyl phthalate,A64,11749573,-,-,-2.35,log(mol/L),2.35,-log(M),Train,,-,,-,,,,-
O=C(C1=CC=C(O)C=C1)OCC,120-47-8,-,415,ethyl-p-hydroxybenzoate,A64,11749573,-,-,-2.35,log(mol/L),2.35,-log(M),Train,,-,,-,,,,-
CCCCCCCC=O,124-13-0,-,416,octanal,A64,11749573,-,-,-2.36,log(mol/L),2.36,-log(M),Train,,-,,-,,,,-
C#CCCCC,693-02-7,-,417,1-hexyne,A64,11749573,-,-,-2.36,log(mol/L),2.36,-log(M),Train,,-,,-,,,,-
O=C(NC1CCCCCCC1)N(C)C,2163-69-1,-,418,cycluron,A64,11749573,-,-,-2.36,log(mol/L),2.36,-log(M),Train,,-,,-,,,,-
CSC=1C=2N=CC=NC2N=CN1,6966-78-5,-,419,4-methylthiopteridine,A64,11749573,-,-,-2.36,log(mol/L),2.36,-log(M),Train,,-,,-,,,,-
S=C1N=CC2=C(N1)N=CC=N2,16878-76-5,-,420,2-mercaptopteridine,A64,11749573,-,-,-2.36,log(mol/L),2.36,-log(M),Train,,-,,-,,,,-
CCOC1=CC=C(NC(C)=O)C=C1,62-44-2,-,421,phenacetin,A64,11749573,-,-,-2.37,log(mol/L),2.37,-log(M),Train,,-,,-,,,,-
CCCCBr,109-65-9,-,422,1-bromobutane,A64,11749573,-,-,-2.37,log(mol/L),2.37,-log(M),Train,,-,,-,,,,-
ClC1=CC=CC=C1,108-90-7,-,423,chlorobenzene,A64,11749573,-,-,-2.38,log(mol/L),2.38,-log(M),Train,,-,,-,,,,-
BrC(CCl)CBr,96-12-8,-,424,"1,2-dibromo-3-chloropropane",A64,11749573,-,-,-2.38,log(mol/L),2.38,-log(M),Train,,-,,-,,,,-
N#CC1=CC=CC=C1C#N,91-15-6,-,425,phthalonitrile,A64,11749573,-,-,-2.38,log(mol/L),2.38,-log(M),Train,,-,,-,,,,-
OC=1C=2C=NNC2N=CN1,315-30-0,-,426,allopurinol,A64,11749573,-,-,-2.38,log(mol/L),2.38,-log(M),Train,,-,,-,,,,-
ClCC1=CC=CC=C1,100-44-7,-,427,alfa-chlorotoluene,A64,11749573,-,-,-2.39,log(mol/L),2.39,-log(M),Train,,-,,-,,,,-
OC1=CC=CC=C1C2=CC=CC=C2,90-43-7,-,428,2-phenylphenol,A64,11749573,-,-,-2.39,log(mol/L),2.39,-log(M),Train,,-,,-,,,,-
CSC1=CC=CC=C1,100-68-5,-,429,thioanisole,A64,11749573,-,-,-2.39,log(mol/L),2.39,-log(M),Train,,-,,-,,,,-
ClC(Cl)CCC,541-33-3,-,430,"1,1-dichlorobutane",A64,11749573,-,-,-2.4,log(mol/L),2.4,-log(M),Train,,-,,-,,,,-
O=C(C1=CC=C(C=C1)OC)OC,121-98-2,-,431,methyl-4-methoxybenzoate,A64,11749573,-,-,-2.41,log(mol/L),2.41,-log(M),Train,,-,,-,,,,-
CC1=NN=C(NS(=O)(C2=CC=C(N)C=C2)=O)S1,144-82-1,-,432,sulfamethiazole,A64,11749573,-,-,-2.41,log(mol/L),2.41,-log(M),Train,,-,,-,,,,-
O=N(C1=CC=C(OC)C=C1)=O,100-17-4,-,433,4-nitroanisole,A64,11749573,-,-,-2.41,log(mol/L),2.41,-log(M),Train,,-,,-,,,,-
CC1=CNC2=C1C=CC=C2,83-34-1,-,434,3-methylindole,A64,11749573,-,-,-2.42,log(mol/L),2.42,-log(M),Train,,-,,-,,,,-
CC(C)CBr,78-77-3,-,435,1-bromo-2-methylpropane,A64,11749573,-,-,-2.43,log(mol/L),2.43,-log(M),Train,,-,,-,,,,-
S=C1NC(C)=CC(N1)=O,56-04-2,-,436,methylthiouracil,A64,11749573,-,-,-2.43,log(mol/L),2.43,-log(M),Train,,-,,-,,,,-
NC1=CC=C(S(NC2=NC=CS2)(=O)=O)C=C1,72-14-0,-,437,sulfathiozole,A64,11749573,-,-,-2.43,log(mol/L),2.43,-log(M),Train,,-,,-,,,,-
O=C(C=1S(=O)(CCOC1C)=O)NC2=CC=CC=C2,5259-88-1,-,438,oxycarboxin,A64,11749573,-,-,-2.43,log(mol/L),2.43,-log(M),Train,,-,,-,,,,-
O=N(C1=CC(C)=CC=C1)=O,99-08-1,-,439,3-nitrotoluene,A64,11749573,-,-,-2.44,log(mol/L),2.44,-log(M),Train,,-,,-,,,,-
O=S(C1=CC=C(N)C=C1)(NC2=NC(C)=C(C)O2)=O,729-99-7,-,440,sulfamoxole,A64,11749573,-,-,-2.44,log(mol/L),2.44,-log(M),Train,,-,,-,,,,-
N1=CC(=C(N=C1S)O)C,636-26-0,-,441,5-methyl-2-thiouracil,A64,11749573,-,-,-2.45,log(mol/L),2.45,-log(M),Train,,-,,-,,,,-
CC(C(O)=O)OC1=CC=C(Cl)C=C1Cl,120-36-5,-,442,dichlorprop,A64,11749573,-,-,-2.45,log(mol/L),2.45,-log(M),Train,,-,,-,,,,-
O=C(O)C1=C(Cl)C(N)=CC(Cl)=C1,133-90-4,-,443,chloramben,A64,11749573,-,-,-2.47,log(mol/L),2.47,-log(M),Train,,-,,-,,,,-
O=C1N(C(C)(C)C)C(NC(=C1Cl)C)=O,5902-51-2,-,444,terbacil,A64,11749573,-,-,-2.48,log(mol/L),2.48,-log(M),Train,,-,,-,,,,-
OC(C=CC1=CC=CC=C1)=O,621-82-9,-,445,cinnamic acid,A64,11749573,-,-,-2.48,log(mol/L),2.48,-log(M),Train,,-,,-,,,,-
O=C(CCl)N(C(C)C)C1=CC=CC=C1,1918-16-7,-,446,propachlor,A64,11749573,-,-,-2.48,log(mol/L),2.48,-log(M),Train,,-,,-,,,,-
ClC1=C(OCC(O)=O)C=CC(Cl)=C1,94-75-7,-,447,"2,4-d",A64,11749573,-,-,-2.51,log(mol/L),2.51,-log(M),Train,,-,,-,,,,-
O=C1C2=C(O)C=CC(Cl)=C2C(O)C3C1=C(O)C4(C(C(C(N)=O)=C(O)C(N(C)C)C4C3)=O)O,127-33-3,-,448,demeclocycline,A64,11749573,-,-,-2.52,log(mol/L),2.52,-log(M),Train,,-,,-,,,,-
CC(C1(C(NC(=O)NC1=O)=O)CC)CCC,76-74-4,-,449,pentobarbital,A64,11749573,-,-,-2.52,log(mol/L),2.52,-log(M),Train,,-,,-,,,,-
COC1=C(O)C=C(Cl)C(Cl)=C1,2460-49-3,-,450,"4,5-dichloroquiaiacol",A64,11749573,-,-,-2.53,log(mol/L),2.53,-log(M),Train,,-,,-,,,,-
CC=CCC,646-04-8,-,451,trans-2-pentene,A64,11749573,-,-,-2.54,log(mol/L),2.54,-log(M),Train,,-,,-,,,,-
ClCC1=CC=C(C=C1)F,352-11-4,-,452,p-fluorobenzyl chloride,A64,11749573,-,-,-2.54,log(mol/L),2.54,-log(M),Train,,-,,-,,,,-
OC=1C=2C=CC=NC2C=CC1,578-67-6,-,453,5-hydroxyquinoline,A64,11749573,-,-,-2.54,log(mol/L),2.54,-log(M),Train,,-,,-,,,,-
COC1=CC(NS(=O)(C2=CC=C(C=C2)N)=O)=NC(C)=N1,3772-76-7,-,454,sulfamethomidine,A64,11749573,-,-,-2.54,log(mol/L),2.54,-log(M),Train,,-,,-,,,,-
ClC1=CC(C)=C(OC(C)C(O)=O)C=C1,93-65-2,-,455,Mecoprop,A64,11749573,-,-,-2.55,log(mol/L),2.55,-log(M),Train,,-,,-,,,,-
CC1=C(C(NC2=CC=CC=C2)=O)CCCO1,24691-76-7,-,456,pyracarbolid,A64,11749573,-,-,-2.56,log(mol/L),2.56,-log(M),Train,,-,,-,,,,-
O=C1NC(C(C(N1)=O)(CCC(C)C)CC)=O,57-43-2,-,457,amobarbital,A64,11749573,-,-,-2.57,log(mol/L),2.57,-log(M),Train,,-,,-,,,,-
COC1=CN=C(NS(=O)(C2=CC=C(C=C2)N)=O)N=C1,651-06-9,-,458,sulfameter,A64,11749573,-,-,-2.58,log(mol/L),2.58,-log(M),Train,,-,,-,,,,-
CC(CCCCCCC)=O,821-55-6,-,459,2-nonanone,A64,11749573,-,-,-2.58,log(mol/L),2.58,-log(M),Train,,-,,-,,,,-
C1=CCCCC1,110-83-8,-,460,cyclohexene,A64,11749573,-,-,-2.59,log(mol/L),2.59,-log(M),Train,,-,,-,,,,-
OC(C1=CC(Cl)=CC=C1)=O,535-80-8,-,461,m-chlorobenzoic acid,A64,11749573,-,-,-2.59,log(mol/L),2.59,-log(M),Train,,-,,-,,,,-
CCC1=CC=CS1,872-55-9,-,462,2-ethylthiophene,A64,11749573,-,-,-2.59,log(mol/L),2.59,-log(M),Train,,-,,-,,,,-
C1(CN(C2=CC=CC=C2)CC3=CC=CC=C3)=NCCN1,91-75-8,-,463,antazoline,A64,11749573,-,-,-2.6,log(mol/L),2.6,-log(M),Train,,-,,-,,,,-
C(Cl)(Cl)C(Cl)(Cl)Cl,76-01-7,-,464,pentachloroethane,A64,11749573,-,-,-2.6,log(mol/L),2.6,-log(M),Train,,-,,-,,,,-
COC1=CC=C(C(C2CC2)(C3=CN=CN=C3)O)C=C1,12771-68-5,-,465,ancymidol,A64,11749573,-,-,-2.6,log(mol/L),2.6,-log(M),Train,,-,,-,,,,-
OC(CN1C(SC2=C1C(Cl)=CC=C2)=O)=O,-,-,466,benazolin,A64,11749573,-,-,-2.61,log(mol/L),2.61,-log(M),Train,,-,,-,,,,-
O=S(NC1=NOC(C)=C1)(C2=CC=C(N)C=C2)=O,723-46-6,-,467,sulfamethoxazole,A64,11749573,-,-,-2.62,log(mol/L),2.62,-log(M),Train,,-,,-,,,,-
NC(OCCCCCCC)=O,4248-20-8,-,468,n-heptyl carbamate,A64,11749573,-,-,-2.62,log(mol/L),2.62,-log(M),Train,,-,,-,,,,-
O=S1(C2=C(C=C(Cl)C(S(N)(=O)=O)=C2)NCN1)=O,58-93-5,-,469,hydrochlorthiazide,A64,11749573,-,-,-2.62,log(mol/L),2.62,-log(M),Train,,-,,-,,,,-
C12C(ON(=O)=O)COC1C(ON(=O)=O)CO2,87-33-2,-,470,isosorbide dinitrate,A64,11749573,-,-,-2.63,log(mol/L),2.63,-log(M),Train,,-,,-,,,,-
O=C(C1=CC=C(N)C=C1)CC,70-69-9,-,471,p-aminopropiophenone,A64,11749573,-,-,-2.63,log(mol/L),2.63,-log(M),Train,,-,,-,,,,-
CC(Cl)CCC,625-29-6,-,472,2-chloropentane,A64,11749573,-,-,-2.63,log(mol/L),2.63,-log(M),Train,,-,,-,,,,-
C1CCCC1,287-92-3,-,473,cyclopentane,A64,11749573,-,-,-2.64,log(mol/L),2.64,-log(M),Train,,-,,-,,,,-
CN(CCN(C1=NC=CC=C1)CC2=CC=CC=C2)C,91-81-6,-,474,tripelenamine,A64,11749573,-,-,-2.64,log(mol/L),2.64,-log(M),Train,,-,,-,,,,-
CN(C)CCN(C1=CC=CC=N1)CC2=CC=CS2,91-80-5,-,475,methapyrilene,A64,11749573,-,-,-2.64,log(mol/L),2.64,-log(M),Train,,-,,-,,,,-
OC(CC1=CC=CC=2C=CC=CC21)=O,86-87-3,-,476,1-naphthaceneacetic acid,A64,11749573,-,-,-2.65,log(mol/L),2.65,-log(M),Train,,-,,-,,,,-
CC(C)N1C(C2=CC=CC=C2NS1(=O)=O)=O,25057-89-0,-,477,bentazon,A64,11749573,-,-,-2.68,log(mol/L),2.68,-log(M),Train,,-,,-,,,,-
C=CCCC=C,592-42-7,-,478,"1,5-hexadiene",A64,11749573,-,-,-2.68,log(mol/L),2.68,-log(M),Train,,-,,-,,,,-
C=CCCC,109-67-1,-,479,1-pentene,A64,11749573,-,-,-2.68,log(mol/L),2.68,-log(M),Train,,-,,-,,,,-
C=12C=3C=CC=NC3C=CC1C=CC=N2,230-46-6,-,480,"1,7-phenantroline",A64,11749573,-,-,-2.68,log(mol/L),2.68,-log(M),Train,,-,,-,,,,-
CC(NC1=CC=C(N(=O)=O)C=C1)=O,104-04-1,-,481,4-nitroacetanilide,A64,11749573,-,-,-2.69,log(mol/L),2.69,-log(M),Train,,-,,-,,,,-
ClC(C(C)(Cl)C)C,507-45-9,-,482,"2,3-dichloro-2-methylbutane",A64,11749573,-,-,-2.69,log(mol/L),2.69,-log(M),Train,,-,,-,,,,-
CC(Cl)C(Cl)C,7581-97-7,-,483,"2,3-dichlorobutane",A64,11749573,-,-,-2.7,log(mol/L),2.7,-log(M),Train,,-,,-,,,,-
NC1=CC=C(C=C1)C2=CC=C(N)C=C2,92-87-5,-,484,p-benzidine,A64,11749573,-,-,-2.7,log(mol/L),2.7,-log(M),Train,,-,,-,,,,-
O=C(O)CCCCCCCCCCN,2432-99-7,-,485,11-aminoundecanoic acid,A64,11749573,-,-,-2.7,log(mol/L),2.7,-log(M),Train,,-,,-,,,,-
CCCCCCC(OCC)=O,106-30-9,-,486,ethyl heptylate,A64,11749573,-,-,-2.71,log(mol/L),2.71,-log(M),Train,,-,,-,,,,-
C1=CC(OCC)=CC=C1C(=O)OCCN(CC)CC,94-23-5,-,487,parethoxycaine,A64,11749573,-,-,-2.71,log(mol/L),2.71,-log(M),Train,,-,,-,,,,-
OC1=CC=C(C(OCCCC)=O)C=C1,94-26-8,-,488,butyl-p-hydroxybenzoate,A64,11749573,-,-,-2.72,log(mol/L),2.72,-log(M),Train,,-,,-,,,,-
OC(C1=CC=CC=C1I)=O,88-67-5,-,489,o-iodobenzoic acid,A64,11749573,-,-,-2.73,log(mol/L),2.73,-log(M),Train,,-,,-,,,,-
O=C(N(C1=C(C)C=CC=C1CC)C(C)COC)CCl,51218-45-2,-,490,metolachlor,A64,11749573,-,-,-2.73,log(mol/L),2.73,-log(M),Train,,-,,-,,,,-
CCCCCCl,543-59-9,-,491,1-Chloropentane,A64,11749573,-,-,-2.73,log(mol/L),2.73,-log(M),Train,,-,,-,,,,-
O=C1N(C)C(C(C(N1)=O)(C2=CCCCC2)C)=O,56-29-1,-,492,hexabarital,A64,11749573,-,-,-2.74,log(mol/L),2.74,-log(M),Train,,-,,-,,,,-
CCCCCCCCC(O)=O,112-05-0,-,493,pelargonic acid,A64,11749573,-,-,-2.75,log(mol/L),2.75,-log(M),Train,,-,,-,,,,-
O=C(C1=NC(Cl)=C(Cl)C(N)=C1Cl)O,-,-,494,picloram,A64,11749573,-,-,-2.75,log(mol/L),2.75,-log(M),Train,,-,,-,,,,-
C1(CN2C(CC1CC2)C(O)C3=CC=NC4=C3C=C(OC)C=C4)C=C,130-95-0,-,495,Quinine,A64,11749573,-,-,-2.76,log(mol/L),2.76,-log(M),Train,,-,,-,,,,-
S=C1C2=C(N=CN1)N=CC=N2,65882-61-3,-,496,4-mercaptopteridine,A64,11749573,-,-,-2.77,log(mol/L),2.77,-log(M),Train,,-,,-,,,,-
C=12C=3C=CC=CC3N=CC1C=CC=C2,229-87-8,-,497,phenanthridine,A64,11749573,-,-,-2.78,log(mol/L),2.78,-log(M),Train,,-,,-,,,,-
ClC1=C(C)C=C(O)C=C1C,88-04-0,-,498,"4-chloro-3,5-dimethylphenol",A64,11749573,-,-,-2.8,log(mol/L),2.8,-log(M),Train,,-,,-,,,,-
CC1=C(C)C=CC=C1,95-47-6,-,499,o-Xylene,A64,11749573,-,-,-2.8,log(mol/L),2.8,-log(M),Train,,-,,-,,,,-
O=C(NCC1=CC=CC=C1)CN2C(N(=O)=O)=NC=C2,22994-85-0,-,500,benznidazole,A64,11749573,-,-,-2.81,log(mol/L),2.81,-log(M),Train,,-,,-,,,,-
CN1C(ON(C1=O)C2=CC=C(C(Cl)=C2)Cl)=O,20354-26-1,-,501,methazole,A64,11749573,-,-,-2.82,log(mol/L),2.82,-log(M),Train,,-,,-,,,,-
CC1=CC(C)=CC=C1,108-38-3,-,502,m-xylene,A64,11749573,-,-,-2.82,log(mol/L),2.82,-log(M),Train,,-,,-,,,,-
OC1C23C(C4N5C(O)C(CC)C(C1C5C2)C4)N(C)C6=C3C=CC=C6,-,-,503,ajmaline,A64,11749573,-,-,-2.82,log(mol/L),2.82,-log(M),Train,,-,,-,,,,-
O=S(C1=CC=C(N)C=C1)(C2=CC=C(N)C=C2)=O,80-08-0,-,504,dapsone,A64,11749573,-,-,-2.82,log(mol/L),2.82,-log(M),Train,,-,,-,,,,-
CC(NC1=CC=C(Cl)C=C1)=O,539-03-7,-,505,4-chloroacetanilide,A64,11749573,-,-,-2.84,log(mol/L),2.84,-log(M),Train,,-,,-,,,,-
CC1=NC(NS(=O)(C2=CC=C(C=C2)N)=O)=NC=C1,127-79-7,-,506,sulfamerazine,A64,11749573,-,-,-2.85,log(mol/L),2.85,-log(M),Train,,-,,-,,,,-
O=C(O)C(N)CC1=CC(I)=C(O)C(I)=C1,66-02-4,-,508,"3,5-diiodotyrosine",A64,11749573,-,-,-2.86,log(mol/L),2.86,-log(M),Train,,-,,-,,,,-
O=C(C=1C(=O)C2(C(=C3C(C4=C(C(C3C(C2C(C1O)N(C)C)O)C)C=CC=C4O)=O)O)O)N,564-25-0,-,509,Doxycycline,A64,11749573,-,-,-2.87,log(mol/L),2.87,-log(M),Train,,-,,-,,,,-
O=C1C(Cl)=C(N)C=NN1C2=CC=CC=C2,1698-60-8,-,510,pyrazon,A64,11749573,-,-,-2.87,log(mol/L),2.87,-log(M),Train,,-,,-,,,,-
CN(C1C2CC3C(C(C4=C(C3(O)C)C(Cl)=CC=C4O)=O)=C(C2(C(C(C(N)=O)=C1O)=O)O)O)C,57-62-5,-,511,chlortetracycline,A64,11749573,-,-,-2.88,log(mol/L),2.88,-log(M),Train,,-,,-,,,,-
O=C(N(C)C)NC1=CC=C(Cl)C=C1,150-68-5,-,512,monuron,A64,11749573,-,-,-2.89,log(mol/L),2.89,-log(M),Train,,-,,-,,,,-
CC(C)CCBr,107-82-4,-,513,1-bromo-3-methylbutane,A64,11749573,-,-,-2.89,log(mol/L),2.89,-log(M),Train,,-,,-,,,,-
O=S(NC=1ON=C(C)C1C)(C2=CC=C(N)C=C2)=O,127-69-5,-,514,sulfisoxazole,A64,11749573,-,-,-2.91,log(mol/L),2.91,-log(M),Train,,-,,-,,,,-
OC=1C=2C=CC=C(O)C2C=CC1,83-56-7,-,515,"naphthalene-1,5-diol",A64,11749573,-,-,-2.92,log(mol/L),2.92,-log(M),Train,,-,,-,,,,-
C=CCC1=CC=C(OC)C=C1,140-67-0,-,516,estragole,A64,11749573,-,-,-2.92,log(mol/L),2.92,-log(M),Train,,-,,-,,,,-
NC(C1=CC=CC=C1C(N)=O)=O,88-96-0,-,517,phthalamide,A64,11749573,-,-,-2.92,log(mol/L),2.92,-log(M),Train,,-,,-,,,,-
O=C1C2=C(O)C=C(OC)C=C2OC3=CC=C(C=C31)O,437-50-3,-,519,gentisin,A64,11749573,-,-,-2.93,log(mol/L),2.93,-log(M),Train,,-,,-,,,,-
COC1=CC(NS(=O)(C2=CC=C(C=C2)N)=O)=NC(OC)=N1,122-11-2,-,521,sulfadimethoxine,A64,11749573,-,-,-2.96,log(mol/L),2.96,-log(M),Train,,-,,-,,,,-
O=C(N(C)C)C(C1=CC=CC=C1)C2=CC=CC=C2,957-51-7,-,522,diphenamid,A64,11749573,-,-,-2.98,log(mol/L),2.98,-log(M),Train,,-,,-,,,,-
O=C(OCC)C=CC1=CC=CC=C1,103-36-6,-,523,ethyl cinnamate,A64,11749573,-,-,-3.0,log(mol/L),3.0,-log(M),Train,,-,,-,,,,-
O=C1NC(C(C(N1)=O)(C2=CCCCCC2)CC)=O,509-86-4,-,525,heptabarbital,A64,11749573,-,-,-3.0,log(mol/L),3.0,-log(M),Train,,-,,-,,,,-
OC(CCl)=O,79-11-8,-,20,chloroacetic acid,A64,11749573,-,-,0.93,log(mol/L),-0.93,-log(M),Train,,-,,-,,,,-