SMILES,CASRN,EXTERNALID,N,NAME,ARTICLEID,PUBMEDID,PAGE,TABLE,Solubility_log(mol/L),UNIT {Water solubility},"Water solubility {measured, converted}",UNIT {Water solubility}.1,Dataset,Temperature,UNIT {Temperature},Ionic strength,UNIT {Ionic strength},comment (chemical),source,pH,UNIT {pH}
O=S(NC1=NN=C(C(C)(C)C)S1)(C2=CC=C(C=C2)N)=O,535-65-9,-,1178,glybuthiazole,A171,10850781,-,-,-3.74,log(mol/L),3.74,-log(M),Test 1,,-,,-,,,,-
O=C1CCC2(C)C(CCC3C2CCC4(C)C3CCC4C(CO)=O)=C1,64-85-7,-,1179,deoxycorticosterone,A171,10850781,-,-,-3.75,log(mol/L),3.75,-log(M),Test 1,,-,,-,,,,-
ClC1=NC(C(Cl)(Cl)Cl)=CC=C1,1929-82-4,-,1180,nitrapyrin,A171,10850781,-,-,-3.76,log(mol/L),3.76,-log(M),Test 1,,-,,-,,,,-
CC(C1=CC=C(C)C=C1)C,99-87-6,-,1181,p-isopropyltoluene,A171,10850781,-,-,-3.77,log(mol/L),3.77,-log(M),Test 1,,-,,-,,,,-
O=C1C=CC2(C)C(CCC3C2(F)C(O)CC4(C)C3CC(C)C4(O)C(CO)=O)=C1,378-44-9,-,1182,betamethasone,A171,10850781,-,-,-3.77,log(mol/L),3.77,-log(M),Test 1,,-,,-,,,,-
CC1=C(C)C(NC2=C(C(O)=O)C=CC=C2)=CC=C1,61-68-7,-,1183,mefenamic acid,A171,10850781,-,-,-3.78,log(mol/L),3.78,-log(M),Test 1,,-,,-,,,,-
O=C1CN=C(C2=CC=CC=C2)C3=CC(N(=O)=O)=CC=C3N1,146-22-5,-,1184,Nitrazepam,A171,10850781,-,-,-3.8,log(mol/L),3.8,-log(M),Test 1,,-,,-,,,,-
O=C(OCC)CCCCCCCC,123-29-5,-,1185,ethyl nonanoate,A171,10850781,-,-,-3.8,log(mol/L),3.8,-log(M),Test 1,,-,,-,,,,-
CC12C3CCC(C(C)C)=CC3=CCC1C(CCC2)(C)C(O)=O,514-10-3,-,1186,abietic acid,A171,10850781,-,-,-3.8,log(mol/L),3.8,-log(M),Test 1,,-,,-,,,,-
CC1=CC(S(=O)(C2=CC=CC=C2)=O)=CC=C1NS(=O)(C(F)(F)F)=O,37924-13-3,-,1187,perfluidone,A171,10850781,-,-,-3.8,log(mol/L),3.8,-log(M),Test 1,,-,,-,,,,-
CCCCC=CC,14686-13-6,-,1188,trans-2-heptene,A171,10850781,-,-,-3.82,log(mol/L),3.82,-log(M),Test 1,,-,,-,,,,-
CCCCCC,110-54-3,-,1189,n-hexane,A171,10850781,-,-,-3.84,log(mol/L),3.84,-log(M),Test 1,,-,,-,,,,-
O=C1CCC2(C)C(CCC3C2C(O)CC4(C=O)C3CCC4C(CO)=O)=C1,52-39-1,-,1190,aldosterone,A171,10850781,-,-,-3.85,log(mol/L),3.85,-log(M),Test 1,,-,,-,,,,-
CC1CCCCC1,108-87-2,-,1191,Methylcyclohexane,A171,10850781,-,-,-3.85,log(mol/L),3.85,-log(M),Test 1,,-,,-,,,,-
O=C(C1=CC=2N=C(NC(OC)=O)NC2C=C1)C3=CC=CC=C3,31431-39-7,-,1192,mebendazole,A171,10850781,-,-,-3.88,log(mol/L),3.88,-log(M),Test 1,,-,,-,,,,-
CC(CC(C1=CC=CC=C1)C=2C(=O)OC=3C(C2O)=CC=CC3)=O,81-81-2,-,1193,Warfarin,A171,10850781,-,-,-3.89,log(mol/L),3.89,-log(M),Test 1,,-,,-,,,,-
S=C(SSC(N(C)C)=S)N(C)C,137-26-8,-,1194,thiram,A171,10850781,-,-,-3.9,log(mol/L),3.9,-log(M),Test 1,,-,,-,,,,-
CC(N(C(NC1=CC=C(Cl)C=C1)=O)C)C#C,3766-60-7,-,1195,buturon,A171,10850781,-,-,-3.9,log(mol/L),3.9,-log(M),Test 1,,-,,-,,,,-
CN1C2=CC=CC=C2SC3=C1C=C(CC(O)=O)C=C3,13993-65-2,-,1196,metiazinic acid,A171,10850781,-,-,-3.94,log(mol/L),3.94,-log(M),Test 1,,-,,-,,,,-
OC1CCC2(C)C(CCC3C2CC(O)C4(C)C3CCC4C(C)CCC(O)=O)C1,83-44-3,-,1197,deoxycholic acid,A171,10850781,-,-,-3.95,log(mol/L),3.95,-log(M),Test 1,,-,,-,,,,-
C1(OC2=CC=CC=C2)=CC=CC=C1,101-84-8,-,1198,diphenyl ether,A171,10850781,-,-,-3.96,log(mol/L),3.96,-log(M),Test 1,,-,,-,,,,-
CCCCCCCCl,629-06-1,-,1199,1-chloroheptane,A171,10850781,-,-,-3.99,log(mol/L),3.99,-log(M),Test 1,,-,,-,,,,-
O=C1CCC2(C)C(CCC3C2CCC4(C)C3CCC4(C)O)=C1,58-18-4,-,1200,17-methyltestosterone,A171,10850781,-,-,-3.99,log(mol/L),3.99,-log(M),Test 1,,-,,-,,,,-
CC1=C(C)C=C(C)C(C)=C1C,700-12-9,-,1201,pentamethylbenzene,A171,10850781,-,-,-4.0,log(mol/L),4.0,-log(M),Test 1,,-,,-,,,,-
O=C1CCC2(C)C(CCC3C4CCC(O)(C(COC(C)=O)=O)C4(C)CC(C32)=O)=C1,50-04-4,-,1202,cortisone acetate,A171,10850781,-,-,-4.0,log(mol/L),4.0,-log(M),Test 1,,-,,-,,,,-
ClC1=C(Cl)C=CC=C1Cl,87-61-6,-,1203,"1,2,3-trichlorobenzene",A171,10850781,-,-,-4.0,log(mol/L),4.0,-log(M),Test 1,,-,,-,,,,-
S=P(OC)(OC)OC1=CC(C)=C(N(=O)=O)C=C1,122-14-5,-,1204,fenitrothion,A171,10850781,-,-,-4.04,log(mol/L),4.04,-log(M),Test 1,,-,,-,,,,-
CCCCC1=CC=CC=C1,104-51-8,-,1205,n-butylbenzene,A171,10850781,-,-,-4.06,log(mol/L),4.06,-log(M),Test 1,,-,,-,,,,-
BrC1=CC=C(Br)C=C1,106-37-6,-,1206,"1,4-dibromobenzene",A171,10850781,-,-,-4.07,log(mol/L),4.07,-log(M),Test 1,,-,,-,,,,-
CC(C)NC1=NC(NC(C)C)=NC(SC)=N1,7287-19-6,-,1207,prometryn,A171,10850781,-,-,-4.1,log(mol/L),4.1,-log(M),Test 1,,-,,-,,,,-
S=P(OCC)(OCC)SCSCC,298-02-2,-,1208,phorate,A171,10850781,-,-,-4.11,log(mol/L),4.11,-log(M),Test 1,,-,,-,,,,-
COC1=CC=C2C(C3N(CCC4=C3C=C5OCOC5=C4)C)OC(C2=C1OC)=O,118-08-1,-,1209,hydrastine,A171,10850781,-,-,-4.11,log(mol/L),4.11,-log(M),Test 1,,-,,-,,,,-
O=C1C=CC2(C)C(CCC3C2(F)C(O)CC4(C)C3CC(OC(C)=O)C4(O)C(COC(C)=O)=O)=C1,67-78-7,-,1210,triamcinolone diacetate,A171,10850781,-,-,-4.13,log(mol/L),4.13,-log(M),Test 1,,-,,-,,,,-
C1CCCCCCC1,292-64-8,-,1211,cyclooctane,A171,10850781,-,-,-4.15,log(mol/L),4.15,-log(M),Test 1,,-,,-,,,,-
CN1S(C2=CC=CC=C2C(O)=C1C(NC3=NC=CC=C3)=O)(=O)=O,36322-90-4,-,1212,Piroxicam,A171,10850781,-,-,-4.16,log(mol/L),4.16,-log(M),Test 1,,-,,-,,,,-
OC(C1=CC=CN=C1NC2=CC=CC(C(F)(F)F)=C2)=O,4394-00-7,-,1213,Niflumic acid,A171,10850781,-,-,-4.17,log(mol/L),4.17,-log(M),Test 1,,-,,-,,,,-
ClC(C(Cl)=CCl)=C(Cl)Cl,55880-77-8,-,1214,pentachlorobutadiene,A171,10850781,-,-,-4.23,log(mol/L),4.23,-log(M),Test 1,,-,,-,,,,-
CC(N(C)C)CN1C2=C(C=CC=C2)SC3=C1C=CC=C3,60-87-7,-,1215,Promethazine,A171,10850781,-,-,-4.26,log(mol/L),4.26,-log(M),Test 1,,-,,-,,,,-
O=C1CCC2(C)C(CC(SC(C)=O)C3C2CCC4(C)C3CCC45OC(CC5)=O)=C1,52-01-7,-,1216,spironolactone,A171,10850781,-,-,-4.28,log(mol/L),4.28,-log(M),Test 1,,-,,-,,,,-
OC1=C(Cl)C(Cl)=C(Cl)C(Cl)=C1Cl,87-86-5,-,1217,Pentachlorophenol,A171,10850781,-,-,-4.28,log(mol/L),4.28,-log(M),Test 1,,-,,-,,,,-
CC(CCC(O)=O)C1CCC2C3C(O)CC4CC(O)CCC4(C)C3CCC12C,128-13-2,-,1218,ursodeoxycholic acid,A171,10850781,-,-,-4.29,log(mol/L),4.29,-log(M),Test 1,,-,,-,,,,-
CCC1=CC=2C=CC=CC2C=C1,939-27-5,-,1219,2-ethylnaphthalene,A171,10850781,-,-,-4.29,log(mol/L),4.29,-log(M),Test 1,,-,,-,,,,-
OC1=CC=2CCC3C(CCC4(C)C3CCC4(C#C)O)C2C=C1,57-63-6,-,1220,ethinyl estradiol,A171,10850781,-,-,-4.3,log(mol/L),4.3,-log(M),Test 1,,-,,-,,,,-
CN(C)CCCN1C2=C(SC3=C1C=CC=C3)C=CC=C2,58-40-2,-,1221,Promazine,A171,10850781,-,-,-4.3,log(mol/L),4.3,-log(M),Test 1,,-,,-,,,,-
COP(OC)(OC1=C(Cl)C=C(N(=O)=O)C=C1)=S,2463-84-5,-,1222,dicaphton,A171,10850781,-,-,-4.31,log(mol/L),4.31,-log(M),Test 1,,-,,-,,,,-
O=C1C=CC2(C)C(CCC3C2(F)C(O)CC4(C)C3CC5C4(OC(C)(C)O5)C(CO)=O)=C1,76-25-5,-,1223,triamcinolone acetonide,A171,10850781,-,-,-4.32,log(mol/L),4.32,-log(M),Test 1,,-,,-,,,,-
C=12C=CC=CC1SC3=C2C=CC=C3,132-65-0,-,1224,dibenzothiophene,A171,10850781,-,-,-4.38,log(mol/L),4.38,-log(M),Test 1,,-,,-,,,,-
OC(C1=C(Cl)C=CC=C1)(C2=CN=CN=C2)C3=CC=C(Cl)C=C3,60168-88-9,-,1225,fenarimol,A171,10850781,-,-,-4.38,log(mol/L),4.38,-log(M),Test 1,,-,,-,,,,-
O=C1C2C3=CC(OC)=C(OC)C=C3OCC2OC4=C1C=CC5=C4CC(C(C)=C)O5,83-79-4,-,1226,rotenone,A171,10850781,-,-,-4.42,log(mol/L),4.42,-log(M),Test 1,,-,,-,,,,-
CCC(C1=CC=C(C=C1)O)C(C2=CC=C(O)C=C2)CC,5635-50-7,-,1227,hexestrol,A171,10850781,-,-,-4.43,log(mol/L),4.43,-log(M),Test 1,,-,,-,,,,-
O=C(CCCN1CCC(C2=CC=C(Cl)C=C2)(O)CC1)C3=CC=C(F)C=C3,52-86-8,-,1228,Haloperidol,A171,10850781,-,-,-4.43,log(mol/L),4.43,-log(M),Test 1,,-,,-,,,,-
CCCCCCCBr,629-04-9,-,1229,1-bromoheptane,A171,10850781,-,-,-4.43,log(mol/L),4.43,-log(M),Test 1,,-,,-,,,,-
CN(CCC=C1C2=CC=CC=C2CCC3=C1C=CC=C3)C,50-48-6,-,1230,Amitriptyline,A171,10850781,-,-,-4.46,log(mol/L),4.46,-log(M),Test 1,,-,,-,,,,-
O=N(C1=C(C)C(N(=O)=O)=CC(=C1OC(C)=O)C(C)(C)C)=O,-,-,1231,medinoterb acetate,A171,10850781,-,-,-4.47,log(mol/L),4.47,-log(M),Test 1,,-,,-,,,,-
ClC1=CC(Cl)=CC(Cl)=C1,108-70-3,-,1232,"1,3,5-trichlorobenzene",A171,10850781,-,-,-4.48,log(mol/L),4.48,-log(M),Test 1,,-,,-,,,,-
CC1(CC(C)CC1)C,4516-69-2,-,1233,"1,1,3-trimethylcyclopentane",A171,10850781,-,-,-4.48,log(mol/L),4.48,-log(M),Test 1,,-,,-,,,,-
FC(F)(F)C1=CC2=C(C=C1)SC3=C(C=CC=C3)N2CCCN4CCN(C)CC4,117-89-5,-,1234,Trifluoperazine,A171,10850781,-,-,-4.52,log(mol/L),4.52,-log(M),Test 1,,-,,-,,,,-
O=C(OC(C)C)C(C1=CC=C(Cl)C=C1)(O)C2=CC=C(Cl)C=C2,-,-,1235,chloropropylate,A171,10850781,-,-,-4.53,log(mol/L),4.53,-log(M),Test 1,,-,,-,,,,-
S=P(OC)(OC)OC1=CC(C)=C(SC)C=C1,55-38-9,-,1236,fenthion,A171,10850781,-,-,-4.57,log(mol/L),4.57,-log(M),Test 1,,-,,-,,,,-
O=C1C=C2CCC3C4CCC(O)(C(=O)COC(=O)C(C)(C)C)C4(C)CC(O)C3C2(C)C=C1,1107-99-9,-,1237,prednisolone-21-trimethylacetate,A171,10850781,-,-,-4.58,log(mol/L),4.58,-log(M),Test 1,,-,,-,,,,-
O=C1C2=CC=CC=C2N=C(C3=CC=CC=C3)O1,1022-46-4,-,1238,"2-phenyl-3,1-benzoxazin-4-one",A171,10850781,-,-,-4.61,log(mol/L),4.61,-log(M),Test 1,,-,,-,,,,-
C1(CCC2=CC=CC=C2)=CC=CC=C1,103-29-7,-,1239,bibenzyl,A171,10850781,-,-,-4.62,log(mol/L),4.62,-log(M),Test 1,,-,,-,,,,-
CC12C(C(COC(C)=O)=O)CCC1C3CCC4=CC(=O)CCC4(C3CC2)C,56-47-3,-,1240,deoxycorticosterone acetate,A171,10850781,-,-,-4.63,log(mol/L),4.63,-log(M),Test 1,,-,,-,,,,-
OC1CC=2C(CC1)(C)C3C(CC2)C4C(CC3)(C)C(CC4)C(C)=O,145-13-1,-,1241,pregnenolone,A171,10850781,-,-,-4.65,log(mol/L),4.65,-log(M),Test 1,,-,,-,,,,-
CC1=CC=2C=CC=CC2C=C1C,581-40-8,-,1242,"2,3-dimethylnaphthalene",A171,10850781,-,-,-4.72,log(mol/L),4.72,-log(M),Test 1,,-,,-,,,,-
OC=1C2=C(C=CC=C2)C=C3C=CC=CC31,529-86-2,-,1243,1-anthranol,A171,10850781,-,-,-4.73,log(mol/L),4.73,-log(M),Test 1,,-,,-,,,,-
O=C1CCC2C(CCC3C4CCC(C#C)(O)C4(C)CCC23)=C1,51-98-9,-,1244,norethisterone acetate,A171,10850781,-,-,-4.79,log(mol/L),4.79,-log(M),Test 1,,-,,-,,,,-
ClC1=CC(Cl)=C(OP(OC)(OC)=S)N=C1Cl,5598-13-0,-,1245,chlorpyriphos methyl,A171,10850781,-,-,-4.82,log(mol/L),4.82,-log(M),Test 1,,-,,-,,,,-
CC12CCC3C4=C(CCC3C1CCC2O)C=C(O)C=C4,57-91-0,-,1246,alpha-estradiol,A171,10850781,-,-,-4.84,log(mol/L),4.84,-log(M),Test 1,,-,,-,,,,-
O=C(SCC(Cl)=C(Cl)Cl)N(C(C)C)C(C)C,2303-17-5,-,1247,triallate,A171,10850781,-,-,-4.88,log(mol/L),4.88,-log(M),Test 1,,-,,-,,,,-
O=C(N(C)C)NC1=CC=C(OC2=CC=C(Cl)C=C2)C=C1,1982-47-4,-,1248,chloroxuron,A171,10850781,-,-,-4.89,log(mol/L),4.89,-log(M),Test 1,,-,,-,,,,-
CC1=CC=2C=CC(C)=CC2C=C1,581-42-0,-,1249,"2,6-dimethylnaphthalene",A171,10850781,-,-,-4.89,log(mol/L),4.89,-log(M),Test 1,,-,,-,,,,-
ClC(C(Cl)=C(Cl)Cl)=C(Cl)Cl,87-68-3,-,1250,hexachlorobutadiene,A171,10850781,-,-,-4.91,log(mol/L),4.91,-log(M),Test 1,,-,,-,,,,-
NS(C1=CC(N(=O)=O)=C(N(CCC)CCC)C(N(=O)=O)=C1)(=O)=O,19044-88-3,-,1251,oryzalin,A171,10850781,-,-,-5.16,log(mol/L),5.16,-log(M),Test 1,,-,,-,,,,-
ClC1=CC=C(C2=CC=CC=C2)C=C1,2051-62-9,-,1252,4-chlorobiphenyl,A171,10850781,-,-,-5.2,log(mol/L),5.2,-log(M),Test 1,,-,,-,,,,-
CCCCCCC1=CC=CC=C1,1077-16-3,-,1253,n-hexylbenzene,A171,10850781,-,-,-5.21,log(mol/L),5.21,-log(M),Test 1,,-,,-,,,,-
OC1=CC=2C=CC3=C(CCC4(C)C3CCC4=O)C2C=C1,517-09-9,-,1254,equilenin,A171,10850781,-,-,-5.24,log(mol/L),5.24,-log(M),Test 1,,-,,-,,,,-
O=C(OCC1=CC=CC(OC2=CC=CC=C2)=C1)C3C(C=C(C)C)C3(C)C,26002-80-2,-,1255,phenothrin,A171,10850781,-,-,-5.24,log(mol/L),5.24,-log(M),Test 1,,-,,-,,,,-
C=12C=3C=CC=CC3C=CC1C=CC=C2,85-01-8,-,1256,phenantherene,A171,10850781,-,-,-5.26,log(mol/L),5.26,-log(M),Test 1,,-,,-,,,,-
CC=1C2=C(OC(C1Cl)=O)C=C(OP(OCC)(OCC)=S)C=C2,56-72-4,-,1257,coumaphos,A171,10850781,-,-,-5.38,log(mol/L),5.38,-log(M),Test 1,,-,,-,,,,-
OC1C=CC2C1C3(C(Cl)=C(C2(C3(Cl)Cl)Cl)Cl)Cl,-,-,1258,1-hydroxychlordene,A171,10850781,-,-,-5.46,log(mol/L),5.46,-log(M),Test 1,,-,,-,,,,-
N#CC1=C(Cl)C(Cl)=C(Cl)C(C#N)=C1Cl,1897-45-6,-,1259,chlorothalonil,A171,10850781,-,-,-5.64,log(mol/L),5.64,-log(M),Test 1,,-,,-,,,,-
O=N(=O)C1=CC(C(F)(F)F)=CC(N(=O)=O)=C1N(CCC)CCC,1582-09-8,-,1260,trifluralin,A171,10850781,-,-,-5.68,log(mol/L),5.68,-log(M),Test 1,,-,,-,,,,-
S=P(OCC)(OCC)SCSC1=CC=C(Cl)C=C1,786-19-6,-,1261,carbophenothion,A171,10850781,-,-,-5.74,log(mol/L),5.74,-log(M),Test 1,,-,,-,,,,-
ClC1=CC=CC(C2=CC(Cl)=CC=C2)=C1,2050-67-1,-,1262,"3,3'-pcb",A171,10850781,-,-,-5.8,log(mol/L),5.8,-log(M),Test 1,,-,,-,,,,-
CC=1C=2C=CC=CC2C=C3C1C=CC=C3,779-02-2,-,1263,9-methylanthracene,A171,10850781,-,-,-5.89,log(mol/L),5.89,-log(M),Test 1,,-,,-,,,,-
C12=C3C4=CC=C1CCCC2=CC=C3CCC4,1732-13-4,-,1264,"1,2,3,6,7,8-hexahydropyrene",A171,10850781,-,-,-5.96,log(mol/L),5.96,-log(M),Test 1,,-,,-,,,,-
ClC1=CC(C2=CC=CC=C2Cl)=C(Cl)C=C1,37680-65-2,-,1265,"2,2',5-pcb",A171,10850781,-,-,-6.02,log(mol/L),6.02,-log(M),Test 1,,-,,-,,,,-
S=P(OC)(OC)OC1=CC(Cl)=C(Br)C=C1Cl,2104-96-3,-,1266,bromophos,A171,10850781,-,-,-6.09,log(mol/L),6.09,-log(M),Test 1,,-,,-,,,,-
ClC12C3C4C5C(O5)C(C4)C3C(C(=C1Cl)Cl)(Cl)C2(Cl)Cl,72-20-8,-,1267,endrin,A171,10850781,-,-,-6.18,log(mol/L),6.18,-log(M),Test 1,,-,,-,,,,-
ClC1=CC=C(C2=CC=C(C=C2Cl)Cl)C=C1,7012-37-5,-,1268,"2,4,4'-PCB",A171,10850781,-,-,-6.21,log(mol/L),6.21,-log(M),Test 1,,-,,-,,,,-
ClC12C(Cl)=C(Cl)C(C1(Cl)Cl)(C3C(C4C(C23)O4)Cl)Cl,1024-57-3,-,1269,heptachlor epoxide,A171,10850781,-,-,-6.29,log(mol/L),6.29,-log(M),Test 1,,-,,-,,,,-
CC1(C)C(C=C(Cl)Cl)C1C(=O)OCC2=CC=CC(OC3=CC=CC=C3)=C2,52645-53-1,-,1270,permethrin,A171,10850781,-,-,-6.29,log(mol/L),6.29,-log(M),Test 1,,-,,-,,,,-
ClC1=CC=C(Cl)C(C2=CC=CC=C2)=C1Cl,55702-45-9,-,1271,"2,3,6-pcb",A171,10850781,-,-,-6.29,log(mol/L),6.29,-log(M),Test 1,,-,,-,,,,-
ClC12C(Cl)=C(Cl)C(C3C1C(Cl)C=C3)(Cl)C2(Cl)Cl,76-44-8,-,1272,heptachlor,A171,10850781,-,-,-6.32,log(mol/L),6.32,-log(M),Test 1,,-,,-,,,,-
ClC1=CC(Cl)=CC=C1C2=CC=C(Cl)C=C2Cl,2437-79-8,-,1273,"2,2',4,4'-pcb",A171,10850781,-,-,-6.51,log(mol/L),6.51,-log(M),Test 1,,-,,-,,,,-
ClC(Cl)(Cl)C(C1=CC=C(Cl)C=C1)C2=CC=CC=C2Cl,789-02-6,-,1274,"O,P'-DDT",A171,10850781,-,-,-6.62,log(mol/L),6.62,-log(M),Test 1,,-,,-,,,,-
O=P(OC1=C(C)C=CC=C1)(OC2=C(C)C=CC=C2)OC3=C(C)C=CC=C3,1330-78-5,-,1275,tricresyl phosphate,A171,10850781,-,,-6.7,log(mol/L),6.7,-log(M),Test 1,,-,,-,,,,-
CCCCCCCCCCCCCCCC(O)=O,57-10-3,-,1276,palmitic acid,A171,10850781,-,-,-6.81,log(mol/L),6.81,-log(M),Test 1,,-,,-,,,,-
ClC(Cl)(Cl)C(C1=CC=C(OC)C=C1)C2=CC=C(OC)C=C2,72-43-5,-,1277,methoxychlor,A171,10850781,-,-,-6.89,log(mol/L),6.89,-log(M),Test 1,,-,,-,,,,-
O=C(OCC(CC)CCCC)C1=CC=CC=C1C(OCC(CC)CCCC)=O,117-81-7,-,1278,di-(2-ethylhexyl)-phthalate,A171,10850781,-,-,-6.96,log(mol/L),6.96,-log(M),Test 1,,-,,-,,,,-
ClC1=CC=C(Cl)C=C1C2=CC(Cl)=CC=C2Cl,35693-99-3,-,1279,"2,2',5,5'-pcb",A171,10850781,-,-,-7.0,log(mol/L),7.0,-log(M),Test 1,,-,,-,,,,-
ClC1=C(C=CC(=C1Cl)C2=CC=CC(=C2Cl)Cl)Cl,52663-62-4,-,1280,"2,2',3,3',4-pcb",A171,10850781,-,-,-7.05,log(mol/L),7.05,-log(M),Test 1,,-,,-,,,,-
ClC1=C(Cl)C(Cl)=C(Cl)C=C1C2=CC=CC=C2,33284-53-6,-,1281,"2,3,4,5-pcb",A171,10850781,-,,-7.16,log(mol/L),7.16,-log(M),Test 1,,-,,-,,,,-
CCCCCCCCCCCCCCCCO,36653-82-4,-,1282,cetyl alcohol,A171,10850781,-,-,-7.26,log(mol/L),7.26,-log(M),Test 1,,-,,-,,,,-
ClC12C3C(C4C=CC3C4)C(C1(Cl)Cl)(Cl)C(Cl)=C2Cl,309-00-2,-,1283,aldrin,A171,10850781,-,-,-7.33,log(mol/L),7.33,-log(M),Test 1,,-,,-,,,,-
C=12C=3C=4C5=C(C=CC=C5)C1C=CC=C2C=CC3C=CC4,192-97-2,-,1284,benzo(e)pyrene,A171,10850781,-,-,-7.8,log(mol/L),7.8,-log(M),Test 1,,-,,-,,,,-
ClC1=CC=C(Cl)C(C2=CC=C(Cl)C(Cl)=C2Cl)=C1,38380-02-8,-,1285,"2,2',3,4,5'-pcb",A171,10850781,-,-,-7.91,log(mol/L),7.91,-log(M),Test 1,,-,,-,,,,-
C12=CC=3C=CC=CC3C=C1CC4=C2C=CC=C4,243-17-4,-,1286,benzo(b)fluorene,A171,10850781,-,-,-8.04,log(mol/L),8.04,-log(M),Test 1,,-,,-,,,,-
ClC1=C(Cl)C(Cl)=CC=C1C2=C(Cl)C(Cl)=C(Cl)C=C2Cl,52663-71-5,-,1288,"2,2',3,3',4,4',6-pcb",A171,10850781,-,-,-8.3,log(mol/L),8.3,-log(M),Test 1,,-,,-,,,,-
ClC1=C(Cl)C=C(Cl)C(C2=CC=C(Cl)C(Cl)=C2Cl)=C1,35065-28-2,-,1289,"2,2',3,4,4',5'-pcb",A171,10850781,-,-,-8.32,log(mol/L),8.32,-log(M),Test 1,,-,,-,,,,-
ClC1=C(Cl)C(Cl)=C(Cl)C(C2=CC=CC(Cl)=C2Cl)=C1,55215-18-4,-,1290,"2,2',3,3',4,5-pcb",A171,10850781,-,-,-8.42,log(mol/L),8.42,-log(M),Test 1,,-,,-,,,,-
C=12C=3C4=C(C=C5C=CC=CC5=C4)C1C=CC=C2C=CC3,207-08-9,-,1291,benzo(k)fluoranthene,A171,10850781,-,-,-8.49,log(mol/L),8.49,-log(M),Test 1,,-,,-,,,,-
C=12C=C3C=C4C=CC=CC4=CC3=CC1C=CC=C2,92-24-0,-,1292,naphthacene,A171,10850781,-,-,-8.6,log(mol/L),8.6,-log(M),Test 1,,-,,-,,,,-
ClC1=CC=C(Cl)C(=C1Cl)C2=C(Cl)C=CC(Cl)=C2Cl,38411-22-2,-,1293,"2,2',3,3',6,6'-pcb",A171,10850781,-,-,-8.65,log(mol/L),8.65,-log(M),Test 1,,-,,-,,,,-
C=12C=3C=CC=CC3C=CC1C=C4C(C=CC5=C4C=CC=C5)=C2,53-70-3,-,1294,"dibenz(a,h)anthracene",A171,10850781,-,-,-8.66,log(mol/L),8.66,-log(M),Test 1,,-,,-,,,,-
C12=C3C=CC4=C2C(C=5C=6C1=C(C=C3)C=CC6C=CC5)=CC=C4,191-24-2,-,1295,benzo(ghi)perylene,A171,10850781,-,-,-9.03,log(mol/L),9.03,-log(M),Test 1,,-,,-,,,,-
ClC1=C(C2=CC(Cl)=C(Cl)C(Cl)=C2Cl)C(Cl)=C(Cl)C(Cl)=C1Cl,40186-72-9,-,1296,"2,2',3,3',4,4',5,5',6-pcb",A171,10850781,-,-,-10.26,log(mol/L),10.26,-log(M),Test 1,,-,,-,,,,-
ClC1=C(Cl)C(Cl)=C(Cl)C(Cl)=C1C2=C(Cl)C(Cl)=CC(Cl)=C2Cl,52663-77-1,-,1297,"2,2',3,3',4,5,5',6,6'-pcb",A171,10850781,-,-,-10.41,log(mol/L),10.41,-log(M),Test 1,,-,,-,,,,-
ClC1=CC(C2=CC(Cl)=C(C=C2Cl)Cl)=C(Cl)C=C1,37680-73-2,-,1298,"2,2',4,5,5'-pcb",A171,10850781,-,-,-7.89,log(mol/L),7.89,-log(M),Test 2,,-,,-,,,,-
NC1=CC=C(C(OCC)=O)C=C1,94-09-7,-,1299,Benzocaine,A171,10850781,-,-,-2.32,log(mol/L),2.32,-log(M),Test 2,,-,,-,,,,-
O=C(OC1=C(C=CC=C1)C(=O)O)C,50-78-2,-,1300,Acetylsalicylic acid,A171,10850781,-,-,-1.72,log(mol/L),1.72,-log(M),Test 2,,-,,-,,,,-
O=C1N(C)C(N(C2=C1N=CN2)C)=O,58-55-9,-,1301,Theophylline,A171,10850781,-,-,-1.39,log(mol/L),1.39,-log(M),Test 2,,-,,-,,,,-
CN1C(C)=CC(N1C2=CC=CC=C2)=O,60-80-0,-,1302,Antipyrine,A171,10850781,-,-,0.39,log(mol/L),-0.39,-log(M),Test 2,,-,,-,,,,-
CCNC1=NC(NC(C)C)=NC(Cl)=N1,1912-24-9,-,1303,atrazine,A171,10850781,-,-,-3.85,log(mol/L),3.85,-log(M),Test 2,,-,,-,,,,-
O=C1C(CC)(C(=O)NC(N1)=O)C2=CC=CC=C2,50-06-6,-,1304,Phenobarbital,A171,10850781,-,-,-2.32,log(mol/L),2.32,-log(M),Test 2,,-,,-,,,,-
O=C(N(C)C)NC1=CC(Cl)=C(Cl)C=C1,330-54-1,-,1305,diuron,A171,10850781,-,-,-3.8,log(mol/L),3.8,-log(M),Test 2,,-,,-,,,,-
O=C1NC(NC1(C2=CC=CC=C2)C3=CC=CC=C3)=O,57-41-0,-,1307,Phenytoin,A171,10850781,-,-,-3.9,log(mol/L),3.9,-log(M),Test 2,,-,,-,,,,-
O=C1CN=C(C2=CC=CC=C2)C3=C(C=CC(Cl)=C3)N1C,439-14-5,-,1308,Diazepam,A171,10850781,-,-,-3.76,log(mol/L),3.76,-log(M),Test 2,,-,,-,,,,-
CC12C(CCC3C1CCC4(C)C3CCC4O)=CC(CC2)=O,58-22-0,-,1309,Testosterone,A171,10850781,-,-,-4.09,log(mol/L),4.09,-log(M),Test 2,,-,,-,,,,-
ClC1C(Cl)C(Cl)C(Cl)C(Cl)C1Cl,58-89-9,-,1310,lindane,A171,10850781,-,-,-4.64,log(mol/L),4.64,-log(M),Test 2,,-,,-,,,,-
S=P(OCC)(OCC)OC1=NC(C(C)C)=NC(C)=C1,333-41-5,-,1312,diazinon,A171,10850781,-,-,-3.64,log(mol/L),3.64,-log(M),Test 2,,-,,-,,,,-
OC1=CC=C(C=C1)C2(C3=CC=CC=C3C(O2)=O)C4=CC=C(O)C=C4,77-09-8,-,1313,phenolphthalein,A171,10850781,-,-,-2.9,log(mol/L),2.9,-log(M),Test 2,,-,,-,,,,-
O=C(OCC)C(CC(OCC)=O)SP(OC)(OC)=S,121-75-5,-,1314,malathion,A171,10850781,-,-,-3.37,log(mol/L),3.37,-log(M),Test 2,,-,,-,,,,-
S=P(OC1=NC(Cl)=C(Cl)C=C1Cl)(OCC)OCC,2921-88-2,-,1315,chlorpyriphos,A171,10850781,-,-,-5.49,log(mol/L),5.49,-log(M),Test 2,,-,,-,,,,-
CCCCCC(O)C=CC1C(O)CC(C1CC=CCCCC(O)=O)=O,363-24-6,-,1316,Prostaglandin E2,A171,10850781,-,-,-2.47,log(mol/L),2.47,-log(M),Test 2,,-,,-,,,,-
ClC1=CC=C(C(C2=CC=C(Cl)C=C2)C(Cl)(Cl)Cl)C=C1,50-29-3,-,1317,"p,p'-DDT",A171,10850781,-,-,-8.08,log(mol/L),8.08,-log(M),Test 2,,-,,-,,,,-
ClC12C(Cl)(Cl)C(C(=C1Cl)Cl)(Cl)C3C(Cl)C(Cl)CC32,57-74-9,-,1318,chlordane,A171,10850781,-,-,-6.86,log(mol/L),6.86,-log(M),Test 2,,-,,-,,,,-
CC(N)=O,60-35-5,-,1,acetamide,A171,10850781,-,-,1.58,log(mol/L),-1.58,-log(M),Train,,-,,-,,,,-
CNN,60-34-4,-,2,methyl hydrazine,A171,10850781,-,-,1.34,log(mol/L),-1.34,-log(M),Train,,-,,-,,,,-
CC(O)=O,64-19-7,-,3,acetic acid,A171,10850781,-,-,1.22,log(mol/L),-1.22,-log(M),Train,,-,,-,,,,-
C1CCCN1,123-75-1,-,4,pyrrolidine,A171,10850781,-,-,1.15,log(mol/L),-1.15,-log(M),Train,,-,,-,,,,-
NC(NO)=O,127-07-1,-,5,hydroxyurea,A171,10850781,-,-,1.12,log(mol/L),-1.12,-log(M),Train,,-,,-,,,,-
OC(CO)CO,56-81-5,-,6,glycerol,A171,10850781,-,-,1.12,log(mol/L),-1.12,-log(M),Train,,-,,-,,,,-
CC(N(C)C)=O,127-19-5,-,7,"n,n-dimethylacetamide",A171,10850781,-,-,1.11,log(mol/L),-1.11,-log(M),Train,,-,,-,,,,-
C1=CC=CN=N1,289-80-5,-,8,pyridazine,A171,10850781,-,-,1.1,log(mol/L),-1.1,-log(M),Train,,-,,-,,,,-
C1=CC=NC=N1,289-95-2,-,9,pyrimidine,A171,10850781,-,-,1.1,log(mol/L),-1.1,-log(M),Train,,-,,-,,,,-
OC(CO)C(O)C(O)C(O)CO,50-70-4,-,10,sorbitol,A171,10850781,-,-,1.09,log(mol/L),-1.09,-log(M),Train,,-,,-,,,,-
O=C(O)CC(N)C,541-48-0,-,11,beta-aminobutyric acid,A171,10850781,-,-,1.08,log(mol/L),-1.08,-log(M),Train,,-,,-,,,,-